ITEM: TIMESTEP
0
ITEM: NUMBER OF ATOMS
10000
ITEM: BOX BOUNDS pp pp pp
0 500
0 500
0 500
ITEM: ATOMS id type mol x y z bP
0 0 0 462 93 386 1
1 1 0 462 92 385 0
2 2 0 463 93 386 -1
3 3 0 464 92 385 -1
4 4 0 465 93 384 -1
5 5 0 466 92 383 -1
6 0 0 465 92 383 10
7 6 0 464 91 384 -1
8 3 0 465 91 383 -1
9 5 0 465 92 382 -1
10 1 0 466 91 383 6
11 7 0 467 92 384 -1
12 8 0 467 92 385 -1
13 6 0 468 92 386 -1
14 9 0 468 91 386 -1
15 8 0 468 90 385 -1
16 6 0 467 91 385 -1
17 6 0 467 90 384 -1
18 6 0 467 89 383 -1
19 7 0 467 88 384 -1
20 3 0 466 89 384 -1
21 5 0 466 89 385 -1
22 7 0 467 90 385 -1
23 5 0 468 90 386 -1
24 1 0 468 89 385 -1
25 3 0 468 89 386 -1
26 4 0 469 89 386 -1
27 3 0 470 90 387 -1
28 3 0 471 91 386 -1
29 5 0 472 92 386 -1
30 6 0 473 91 385 -1
31 4 0 473 92 386 -1
32 2 0 474 91 385 -1
33 2 0 475 90 385 -1
34 2 0 475 91 386 -1
35 2 0 476 92 385 -1
36 2 0 477 92 384 -1
37 4 0 476 93 383 -1
38 2 0 475 92 383 -1
39 2 0 474 91 382 -1
40 2 0 475 92 381 -1
41 2 0 476 91 380 -1
42 2 0 477 91 381 -1
43 2 0 476 90 381 -1
44 2 0 476 90 382 -1
45 2 0 477 90 382 -1
46 2 0 478 90 381 -1
47 4 0 479 89 380 -1
48 2 0 479 88 379 -1
49 4 0 478 88 378 -1
50 0 1 183 227 58 51
51 1 1 184 226 59 50
52 2 1 185 225 59 -1
53 3 1 186 226 60 -1
54 4 1 185 226 60 -1
55 5 1 184 227 60 -1
56 0 1 184 228 59 60
57 6 1 184 229 59 -1
58 3 1 184 228 58 -1
59 5 1 185 228 57 -1
60 1 1 185 229 58 56
61 7 1 186 230 59 -1
62 8 1 187 230 60 -1
63 6 1 187 231 61 -1
64 9 1 186 230 61 -1
65 8 1 185 229 62 -1
66 6 1 186 229 62 -1
67 6 1 186 229 63 -1
68 6 1 187 228 63 -1
69 7 1 186 227 64 -1
70 3 1 186 226 63 -1
71 5 1 185 226 64 -1
72 7 1 184 226 64 -1
73 5 1 183 225 63 -1
74 1 1 184 224 62 -1
75 3 1 184 223 61 -1
76 4 1 183 224 60 -1
77 3 1 182 223 59 -1
78 3 1 183 222 58 -1
79 5 1 182 221 57 -1
80 6 1 182 220 57 -1
81 4 1 183 220 58 -1
82 2 1 184 221 59 -1
83 2 1 184 220 59 -1
84 2 1 185 219 58 -1
85 2 1 184 218 58 -1
86 2 1 183 217 59 -1
87 4 1 184 217 58 -1
88 2 1 185 216 59 -1
89 2 1 186 217 59 -1
90 2 1 187 216 60 -1
91 2 1 188 216 61 -1
92 2 1 189 217 62 -1
93 2 1 188 218 61 -1
94 2 1 187 217 61 -1
95 2 1 186 218 61 -1
96 2 1 186 217 61 -1
97 4 1 186 216 62 -1
98 2 1 187 215 61 -1
99 4 1 188 216 62 -1
100 0 2 417 177 188 -1
101 1 2 416 178 189 -1
102 2 2 415 179 188 -1
103 3 2 414 178 187 -1
104 4 2 414 178 188 -1
105 5 2 415 177 188 -1
106 0 2 415 178 189 110
107 6 2 415 177 190 -1
108 3 2 414 176 190 -1
109 5 2 413 176 189 -1
110 1 2 414 177 188 106
111 7 2 413 176 187 -1
112 8 2 412 175 187 -1
113 6 2 412 176 188 -1
114 9 2 413 177 188 -1
115 8 2 412 176 187 -1
116 6 2 411 175 188 -1
117 6 2 410 176 188 -1
118 6 2 411 175 189 -1
119 7 2 410 176 189 -1
120 3 2 410 177 190 -1
121 5 2 409 177 190 -1
122 7 2 408 176 190 -1
123 5 2 408 176 191 -1
124 1 2 407 176 192 -1
125 3 2 408 177 192 -1
126 4 2 407 178 191 -1
127 3 2 408 179 191 -1
128 3 2 408 180 192 -1
129 5 2 409 181 192 -1
130 6 2 410 180 192 -1
131 4 2 411 181 193 -1
132 2 2 411 182 193 -1
133 2 2 411 182 194 -1
134 2 2 412 181 194 -1
135 2 2 413 180 193 -1
136 2 2 414 179 194 -1
137 4 2 414 178 195 -1
138 2 2 415 177 194 -1
139 2 2 416 176 193 -1
140 2 2 415 175 194 -1
141 2 2 415 176 194 -1
142 2 2 414 176 193 -1
143 2 2 415 176 192 -1
144 2 2 414 177 193 -1
145 2 2 415 178 192 -1
146 2 2 414 177 191 -1
147 4 2 414 176 191 -1
148 2 2 415 177 191 -1
149 4 2 414 178 191 -1
150 0 3 257 102 469 151
151 1 3 257 103 470 150
152 2 3 257 104 471 -1
153 3 3 258 105 471 -1
154 4 3 259 104 470 -1
155 5 3 260 104 470 -1
156 0 3 261 103 471 -1
157 6 3 262 103 470 -1
158 3 3 263 104 470 -1
159 5 3 263 105 471 -1
160 1 3 262 104 472 -1
161 7 3 262 103 473 -1
162 8 3 261 104 474 -1
163 6 3 261 104 475 -1
164 9 3 260 103 475 -1
165 8 3 259 103 475 -1
166 6 3 259 102 475 -1
167 6 3 258 103 474 -1
168 6 3 258 102 475 -1
169 7 3 257 101 475 -1
170 3 3 258 102 476 -1
171 5 3 259 102 477 -1
172 7 3 259 103 476 -1
173 5 3 260 103 477 -1
174 1 3 260 103 478 -1
175 3 3 260 102 478 -1
176 4 3 261 101 478 -1
177 3 3 262 100 477 -1
178 3 3 261 100 476 -1
179 5 3 260 101 477 -1
180 6 3 259 100 478 -1
181 4 3 260 99 477 -1
182 2 3 259 99 477 -1
183 2 3 259 100 476 -1
184 2 3 260 101 475 -1
185 2 3 260 100 476 -1
186 2 3 259 99 476 -1
187 4 3 260 98 477 -1
188 2 3 261 99 476 -1
189 2 3 260 100 475 -1
190 2 3 260 101 474 -1
191 2 3 260 100 473 -1
192 2 3 261 101 474 -1
193 2 3 262 100 475 -1
194 2 3 262 100 474 -1
195 2 3 261 101 475 -1
196 2 3 261 102 476 -1
197 4 3 261 103 476 -1
198 2 3 260 102 477 -1
199 4 3 261 102 478 -1
200 0 4 437 420 158 201
201 1 4 438 421 157 200
202 2 4 439 421 158 -1
203 3 4 440 422 158 -1
204 4 4 439 423 157 -1
205 5 4 438 423 156 -1
206 0 4 438 423 157 210
207 6 4 437 423 156 -1
208 3 4 437 424 156 -1
209 5 4 437 424 157 -1
210 1 4 438 423 158 206
211 7 4 437 423 158 -1
212 8 4 437 424 159 -1
213 6 4 437 424 160 -1
214 9 4 437 423 159 -1
215 8 4 436 422 158 -1
216 6 4 435 421 159 -1
217 6 4 435 422 158 -1
218 6 4 434 423 158 -1
219 7 4 435 422 157 -1
220 3 4 436 421 156 -1
221 5 4 435 420 155 -1
222 7 4 434 419 156 -1
223 5 4 434 418 157 -1
224 1 4 433 417 156 -1
225 3 4 432 416 155 -1
226 4 4 432 417 156 -1
227 3 4 433 416 157 -1
228 3 4 434 416 157 -1
229 5 4 434 417 156 -1
230 6 4 433 416 156 -1
231 4 4 432 415 155 -1
232 2 4 432 414 156 -1
233 2 4 433 414 157 -1
234 2 4 432 414 158 -1
235 2 4 431 413 157 -1
236 2 4 432 413 157 -1
237 4 4 433 413 157 -1
238 2 4 433 412 156 -1
239 2 4 434 411 157 -1
240 2 4 433 411 157 -1
241 2 4 433 412 158 -1
242 2 4 432 411 158 -1
243 2 4 433 410 158 -1
244 2 4 434 411 159 -1
245 2 4 434 412 159 -1
246 2 4 435 411 158 -1
247 4 4 435 412 158 -1
248 2 4 435 412 159 -1
249 4 4 436 412 158 -1
250 0 5 196 244 295 251
251 1 5 196 245 294 250
252 2 5 197 245 295 -1
253 3 5 198 245 294 -1
254 4 5 197 246 295 -1
255 5 5 197 245 294 -1
256 0 5 197 245 293 -1
257 6 5 196 244 292 -1
258 3 5 196 244 291 -1
259 5 5 197 245 292 -1
260 1 5 196 246 292 -1
261 7 5 197 246 291 -1
262 8 5 198 245 292 -1
263 6 5 199 244 293 -1
264 9 5 198 243 294 -1
265 8 5 198 243 295 -1
266 6 5 198 244 294 -1
267 6 5 198 243 293 -1
268 6 5 197 242 292 -1
269 7 5 198 242 293 -1
270 3 5 198 243 292 -1
271 5 5 198 243 291 -1
272 7 5 198 242 290 -1
273 5 5 199 241 289 -1
274 1 5 200 241 288 -1
275 3 5 200 241 289 -1
276 4 5 200 242 288 -1
277 3 5 199 241 288 -1
278 3 5 199 240 287 -1
279 5 5 200 240 288 -1
280 6 5 200 240 287 -1
281 4 5 199 241 286 -1
282 2 5 198 242 285 -1
283 2 5 198 243 285 -1
284 2 5 199 243 284 -1
285 2 5 199 244 283 -1
286 2 5 199 243 282 -1
287 4 5 200 243 281 -1
288 2 5 199 243 280 -1
289 2 5 198 243 280 -1
290 2 5 199 242 280 -1
291 2 5 198 241 281 -1
292 2 5 199 241 282 -1
293 2 5 198 242 283 -1
294 2 5 198 242 284 -1
295 2 5 199 242 283 -1
296 2 5 200 241 282 -1
297 4 5 201 240 281 -1
298 2 5 200 240 282 -1
299 4 5 200 240 283 -1
300 0 6 438 492 364 301
301 1 6 438 493 364 300
302 2 6 437 494 364 -1
303 3 6 436 493 364 -1
304 4 6 435 493 363 -1
305 5 6 435 493 364 -1
306 0 6 435 492 364 310
307 6 6 434 491 363 -1
308 3 6 435 491 364 -1
309 5 6 434 492 364 -1
310 1 6 435 492 365 306
311 7 6 436 491 364 -1
312 8 6 435 491 363 -1
313 6 6 436 491 363 -1
314 9 6 435 492 363 -1
315 8 6 436 493 362 -1
316 6 6 437 493 363 -1
317 6 6 438 494 363 -1
318 6 6 437 495 362 -1
319 7 6 438 496 363 -1
320 3 6 439 495 362 -1
321 5 6 440 494 363 -1
322 7 6 439 495 364 -1
323 5 6 438 495 363 -1
324 1 6 437 496 362 -1
325 3 6 437 497 361 -1
326 4 6 438 497 361 -1
327 3 6 439 498 360 -1
328 3 6 439 498 361 -1
329 5 6 440 497 360 -1
330 6 6 440 496 361 -1
331 4 6 439 495 360 -1
332 2 6 439 496 360 -1
333 2 6 439 497 361 -1
334 2 6 438 496 362 -1
335 2 6 437 497 363 -1
336 2 6 438 497 362 -1
337 4 6 439 498 363 -1
338 2 6 439 499 363 -1
339 2 6 439 498 362 -1
340 2 6 439 499 361 -1
341 2 6 440 0 362 -1
342 2 6 439 1 362 -1
343 2 6 440 2 363 -1
344 2 6 441 2 363 -1
345 2 6 441 2 362 -1
346 2 6 442 3 362 -1
347 4 6 443 2 362 -1
348 2 6 444 1 361 -1
349 4 6 444 0 360 -1
350 0 7 471 22 46 351
351 1 7 471 23 45 350
352 2 7 471 24 45 -1
353 3 7 472 25 46 -1
354 4 7 473 24 46 -1
355 5 7 472 24 45 -1
356 0 7 473 24 44 360
357 6 7 472 23 43 -1
358 3 7 472 22 44 -1
359 5 7 473 22 44 -1
360 1 7 473 23 43 356
361 7 7 472 24 43 -1
362 8 7 472 25 42 -1
363 6 7 471 25 43 -1
364 9 7 470 26 42 -1
365 8 7 469 27 41 -1
366 6 7 470 28 41 -1
367 6 7 471 27 40 -1
368 6 7 471 27 39 -1
369 7 7 472 27 38 -1
370 3 7 472 27 37 -1
371 5 7 473 26 38 -1
372 7 7 474 26 37 -1
373 5 7 474 25 36 -1
374 1 7 473 24 36 -1
375 3 7 474 25 35 -1
376 4 7 474 26 34 -1
377 3 7 475 25 33 -1
378 3 7 476 24 33 -1
379 5 7 475 23 34 -1
380 6 7 475 24 35 -1
381 4 7 475 23 36 -1
382 2 7 476 23 36 -1
383 2 7 477 22 35 -1
384 2 7 477 22 34 -1
385 2 7 477 21 35 -1
386 2 7 476 20 34 -1
387 4 7 476 21 35 -1
388 2 7 475 22 36 -1
389 2 7 474 23 36 -1
390 2 7 473 22 35 -1
391 2 7 473 23 34 -1
392 2 7 473 22 34 -1
393 2 7 472 21 33 -1
394 2 7 471 20 33 -1
395 2 7 471 20 32 -1
396 2 7 470 21 32 -1
397 4 7 469 22 32 -1
398 2 7 470 23 32 -1
399 4 7 469 22 33 -1
400 0 8 7 307 108 401
401 1 8 7 307 109 400
402 2 8 6 306 110 -1
403 3 8 7 305 110 -1
404 4 8 7 304 110 -1
405 5 8 7 303 109 -1
406 0 8 7 303 110 410
407 6 8 6 304 109 -1
408 3 8 6 304 110 -1
409 5 8 5 304 111 -1
410 1 8 6 304 111 406
411 7 8 5 305 112 -1
412 8 8 6 305 111 -1
413 6 8 5 304 110 -1
414 9 8 5 303 111 -1
415 8 8 5 303 112 -1
416 6 8 4 304 111 -1
417 6 8 5 303 110 -1
418 6 8 4 303 110 -1
419 7 8 4 302 109 -1
420 3 8 3 303 109 -1
421 5 8 2 302 109 -1
422 7 8 1 301 108 -1
423 5 8 0 300 107 -1
424 1 8 0 299 106 -1
425 3 8 1 300 107 -1
426 4 8 2 300 108 -1
427 3 8 3 301 108 -1
428 3 8 4 301 108 -1
429 5 8 5 302 107 -1
430 6 8 6 302 108 -1
431 4 8 7 301 109 -1
432 2 8 7 300 110 -1
433 2 8 7 300 109 -1
434 2 8 6 300 110 -1
435 2 8 7 300 111 -1
436 2 8 6 299 112 -1
437 4 8 5 299 111 -1
438 2 8 4 299 112 -1
439 2 8 3 299 112 -1
440 2 8 3 299 111 -1
441 2 8 3 298 112 -1
442 2 8 2 298 111 -1
443 2 8 2 299 112 -1
444 2 8 2 299 111 -1
445 2 8 1 299 112 -1
446 2 8 0 298 112 -1
447 4 8 1 298 111 -1
448 2 8 2 297 112 -1
449 4 8 1 296 112 -1
450 0 9 410 332 458 451
451 1 9 409 332 457 450
452 2 9 409 333 456 -1
453 3 9 408 332 455 -1
454 4 9 407 333 455 -1
455 5 9 406 334 455 -1
456 0 9 406 335 456 460
457 6 9 406 335 455 -1
458 3 9 407 336 456 -1
459 5 9 407 336 455 -1
460 1 9 406 336 456 456
461 7 9 407 335 456 -1
462 8 9 408 334 456 -1
463 6 9 407 333 457 -1
464 9 9 408 332 458 -1
465 8 9 407 331 459 -1
466 6 9 406 331 459 -1
467 6 9 405 332 460 -1
468 6 9 406 333 460 -1
469 7 9 405 332 461 -1
470 3 9 404 333 460 -1
471 5 9 403 334 460 -1
472 7 9 402 334 460 -1
473 5 9 402 333 460 -1
474 1 9 403 332 459 -1
475 3 9 402 331 458 -1
476 4 9 401 332 458 -1
477 3 9 400 331 458 -1
478 3 9 399 331 457 -1
479 5 9 399 330 458 -1
480 6 9 400 329 458 -1
481 4 9 399 328 457 -1
482 2 9 400 327 456 -1
483 2 9 400 326 457 -1
484 2 9 401 325 458 -1
485 2 9 402 325 458 -1
486 2 9 402 325 457 -1
487 4 9 403 325 457 -1
488 2 9 404 324 456 -1
489 2 9 403 324 457 -1
490 2 9 404 323 458 -1
491 2 9 404 324 457 -1
492 2 9 403 323 457 -1
493 2 9 404 322 458 -1
494 2 9 403 323 459 -1
495 2 9 402 323 460 -1
496 2 9 403 324 460 -1
497 4 9 403 325 459 -1
498 2 9 404 326 458 -1
499 4 9 403 327 458 -1
500 0 10 201 167 495 501
501 1 10 200 166 496 500
502 2 10 199 166 495 -1
503 3 10 200 167 495 -1
504 4 10 200 167 494 -1
505 5 10 201 168 493 -1
506 0 10 201 167 492 510
507 6 10 202 168 492 -1
508 3 10 202 168 491 -1
509 5 10 201 167 490 -1
510 1 10 200 167 491 506
511 7 10 199 168 492 -1
512 8 10 198 167 493 -1
513 6 10 197 167 494 -1
514 9 10 196 166 494 -1
515 8 10 195 165 494 -1
516 6 10 196 165 495 -1
517 6 10 195 164 496 -1
518 6 10 194 163 497 -1
519 7 10 195 163 496 -1
520 3 10 196 163 496 -1
521 5 10 195 162 497 -1
522 7 10 194 163 496 -1
523 5 10 194 162 496 -1
524 1 10 193 161 495 -1
525 3 10 192 160 496 -1
526 4 10 192 160 497 -1
527 3 10 192 159 496 -1
528 3 10 193 159 495 -1
529 5 10 193 159 494 -1
530 6 10 193 160 494 -1
531 4 10 193 159 493 -1
532 2 10 193 158 493 -1
533 2 10 194 158 494 -1
534 2 10 194 159 494 -1
535 2 10 195 160 493 -1
536 2 10 196 159 494 -1
537 4 10 197 160 495 -1
538 2 10 198 160 495 -1
539 2 10 198 159 495 -1
540 2 10 198 160 494 -1
541 2 10 199 159 495 -1
542 2 10 200 160 496 -1
543 2 10 200 159 496 -1
544 2 10 199 160 497 -1
545 2 10 198 159 497 -1
546 2 10 198 160 497 -1
547 4 10 198 160 496 -1
548 2 10 199 159 497 -1
549 4 10 198 159 496 -1
550 0 11 378 67 105 551
551 1 11 377 66 104 550
552 2 11 376 67 104 -1
553 3 11 375 66 105 -1
554 4 11 375 66 106 -1
555 5 11 374 65 106 -1
556 0 11 374 66 105 574
557 6 11 375 67 106 -1
558 3 11 376 66 106 -1
559 5 11 377 65 105 -1
560 1 11 378 64 104 -1
561 7 11 377 63 103 -1
562 8 11 376 62 104 -1
563 6 11 375 63 105 -1
564 9 11 374 62 104 -1
565 8 11 375 61 105 -1
566 6 11 374 61 105 -1
567 6 11 375 62 106 -1
568 6 11 374 63 107 -1
569 7 11 373 64 106 -1
570 3 11 374 63 105 -1
571 5 11 374 64 106 -1
572 7 11 373 65 106 -1
573 5 11 374 65 105 -1
574 1 11 375 65 106 556
575 3 11 375 66 107 -1
576 4 11 376 67 108 -1
577 3 11 375 68 107 -1
578 3 11 374 69 106 -1
579 5 11 373 70 107 -1
580 6 11 372 69 106 -1
581 4 11 371 68 106 -1
582 2 11 370 67 106 -1
583 2 11 371 66 105 -1
584 2 11 372 67 104 -1
585 2 11 372 66 104 -1
586 2 11 371 65 105 -1
587 4 11 370 66 106 -1
588 2 11 369 67 107 -1
589 2 11 369 67 106 -1
590 2 11 368 68 107 -1
591 2 11 369 68 108 -1
592 2 11 368 69 109 -1
593 2 11 369 69 109 -1
594 2 11 369 69 108 -1
595 2 11 370 70 107 -1
596 2 11 370 71 108 -1
597 4 11 370 72 109 -1
598 2 11 370 73 108 -1
599 4 11 371 72 109 -1
600 0 12 350 376 152 601
601 1 12 350 376 151 600
602 2 12 349 375 151 -1
603 3 12 349 374 151 -1
604 4 12 349 373 152 -1
605 5 12 349 372 153 -1
606 0 12 348 371 154 -1
607 6 12 349 371 153 -1
608 3 12 350 372 154 -1
609 5 12 349 372 154 -1
610 1 12 349 371 155 -1
611 7 12 349 370 155 -1
612 8 12 349 371 156 -1
613 6 12 348 371 157 -1
614 9 12 349 371 157 -1
615 8 12 350 371 158 -1
616 6 12 351 370 159 -1
617 6 12 351 370 160 -1
618 6 12 351 370 161 -1
619 7 12 352 371 162 -1
620 3 12 351 372 163 -1
621 5 12 352 372 164 -1
622 7 12 352 371 165 -1
623 5 12 353 370 166 -1
624 1 12 354 369 165 -1
625 3 12 355 368 165 -1
626 4 12 355 369 166 -1
627 3 12 354 369 167 -1
628 3 12 355 369 168 -1
629 5 12 354 370 169 -1
630 6 12 355 370 168 -1
631 4 12 354 371 168 -1
632 2 12 355 370 169 -1
633 2 12 355 371 169 -1
634 2 12 355 370 170 -1
635 2 12 355 369 171 -1
636 2 12 354 369 170 -1
637 4 12 355 368 169 -1
638 2 12 355 369 169 -1
639 2 12 356 370 168 -1
640 2 12 356 370 169 -1
641 2 12 356 370 170 -1
642 2 12 357 370 171 -1
643 2 12 357 369 170 -1
644 2 12 358 369 171 -1
645 2 12 358 368 171 -1
646 2 12 358 367 171 -1
647 4 12 359 368 171 -1
648 2 12 360 368 171 -1
649 4 12 361 368 170 -1
650 0 13 121 429 465 651
651 1 13 121 429 466 650
652 2 13 122 430 466 -1
653 3 13 123 430 467 -1
654 4 13 124 430 468 -1
655 5 13 125 431 469 -1
656 0 13 125 430 470 674
657 6 13 125 429 471 -1
658 3 13 126 430 472 -1
659 5 13 125 429 473 -1
660 1 13 126 430 474 -1
661 7 13 127 430 475 -1
662 8 13 127 431 474 -1
663 6 13 126 432 475 -1
664 9 13 127 431 476 -1
665 8 13 127 432 476 -1
666 6 13 128 431 476 -1
667 6 13 127 432 475 -1
668 6 13 126 431 475 -1
669 7 13 126 432 474 -1
670 3 13 127 431 473 -1
671 5 13 128 431 473 -1
672 7 13 127 431 472 -1
673 5 13 126 430 471 -1
674 1 13 126 429 470 656
675 3 13 127 430 471 -1
676 4 13 127 430 472 -1
677 3 13 126 429 472 -1
678 3 13 125 430 473 -1
679 5 13 125 430 474 -1
680 6 13 125 431 473 -1
681 4 13 126 432 473 -1
682 2 13 125 431 474 -1
683 2 13 126 430 475 -1
684 2 13 126 429 476 -1
685 2 13 126 430 477 -1
686 2 13 126 430 478 -1
687 4 13 125 431 479 -1
688 2 13 124 432 480 -1
689 2 13 124 433 479 -1
690 2 13 123 432 478 -1
691 2 13 122 432 477 -1
692 2 13 123 432 477 -1
693 2 13 122 431 477 -1
694 2 13 123 430 478 -1
695 2 13 122 429 477 -1
696 2 13 121 429 476 -1
697 4 13 121 430 477 -1
698 2 13 122 429 478 -1
699 4 13 123 428 479 -1
700 0 14 496 485 205 -1
701 1 14 495 484 206 -1
702 2 14 495 483 206 -1
703 3 14 496 482 207 -1
704 4 14 496 483 206 -1
705 5 14 495 482 205 -1
706 0 14 496 481 204 710
707 6 14 495 480 205 -1
708 3 14 495 480 204 -1
709 5 14 496 479 204 -1
710 1 14 496 480 203 706
711 7 14 495 479 204 -1
712 8 14 495 478 204 -1
713 6 14 496 477 205 -1
714 9 14 497 477 206 -1
715 8 14 496 478 206 -1
716 6 14 496 479 205 -1
717 6 14 497 480 205 -1
718 6 14 497 480 204 -1
719 7 14 496 481 203 -1
720 3 14 496 482 203 -1
721 5 14 496 483 203 -1
722 7 14 495 483 204 -1
723 5 14 495 482 203 -1
724 1 14 495 483 202 -1
725 3 14 495 484 203 -1
726 4 14 494 485 202 -1
727 3 14 495 484 201 -1
728 3 14 494 484 200 -1
729 5 14 495 484 200 -1
730 6 14 495 484 199 -1
731 4 14 495 485 200 -1
732 2 14 496 486 201 -1
733 2 14 496 487 200 -1
734 2 14 496 486 200 -1
735 2 14 496 486 199 -1
736 2 14 496 486 198 -1
737 4 14 495 487 199 -1
738 2 14 496 488 200 -1
739 2 14 495 487 200 -1
740 2 14 494 486 200 -1
741 2 14 493 485 199 -1
742 2 14 493 485 198 -1
743 2 14 493 486 199 -1
744 2 14 494 487 198 -1
745 2 14 493 487 197 -1
746 2 14 494 486 197 -1
747 4 14 493 486 196 -1
748 2 14 492 485 197 -1
749 4 14 492 485 196 -1
750 0 15 436 277 23 751
751 1 15 435 278 23 750
752 2 15 435 277 22 -1
753 3 15 436 277 21 -1
754 4 15 435 277 21 -1
755 5 15 435 276 22 -1
756 0 15 435 276 23 760
757 6 15 434 275 24 -1
758 3 15 434 275 25 -1
759 5 15 434 276 24 -1
760 1 15 434 277 24 756
761 7 15 433 276 25 -1
762 8 15 433 277 26 -1
763 6 15 434 278 27 -1
764 9 15 435 278 27 -1
765 8 15 434 277 28 -1
766 6 15 433 276 27 -1
767 6 15 434 276 28 -1
768 6 15 434 275 28 -1
769 7 15 435 275 27 -1
770 3 15 436 276 28 -1
771 5 15 435 276 29 -1
772 7 15 434 275 29 -1
773 5 15 433 275 30 -1
774 1 15 433 274 30 -1
775 3 15 434 273 30 -1
776 4 15 433 274 31 -1
777 3 15 433 273 31 -1
778 3 15 434 272 30 -1
779 5 15 434 272 31 -1
780 6 15 435 273 32 -1
781 4 15 436 274 33 -1
782 2 15 435 275 32 -1
783 2 15 435 276 33 -1
784 2 15 436 275 32 -1
785 2 15 437 275 33 -1
786 2 15 436 274 34 -1
787 4 15 436 273 33 -1
788 2 15 435 272 34 -1
789 2 15 434 273 33 -1
790 2 15 434 274 33 -1
791 2 15 434 273 34 -1
792 2 15 433 273 34 -1
793 2 15 434 273 35 -1
794 2 15 435 273 36 -1
795 2 15 434 272 35 -1
796 2 15 435 271 36 -1
797 4 15 436 271 36 -1
798 2 15 436 270 37 -1
799 4 15 435 271 37 -1
800 0 16 91 461 273 801
801 1 16 90 462 274 800
802 2 16 89 461 273 -1
803 3 16 88 462 274 -1
804 4 16 88 461 274 -1
805 5 16 87 462 273 -1
806 0 16 88 463 274 810
807 6 16 89 464 274 -1
808 3 16 88 464 273 -1
809 5 16 89 463 273 -1
810 1 16 89 464 273 806
811 7 16 88 465 272 -1
812 8 16 88 465 273 -1
813 6 16 89 465 272 -1
814 9 16 88 466 272 -1
815 8 16 87 466 272 -1
816 6 16 86 467 272 -1
817 6 16 86 468 271 -1
818 6 16 86 467 270 -1
819 7 16 87 466 269 -1
820 3 16 88 466 268 -1
821 5 16 88 467 267 -1
822 7 16 87 468 268 -1
823 5 16 86 468 267 -1
824 1 16 85 469 266 -1
825 3 16 84 468 267 -1
826 4 16 83 468 267 -1
827 3 16 84 468 266 -1
828 3 16 84 468 265 -1
829 5 16 83 469 265 -1
830 6 16 84 470 265 -1
831 4 16 84 470 264 -1
832 2 16 83 470 263 -1
833 2 16 82 469 263 -1
834 2 16 82 468 262 -1
835 2 16 81 469 263 -1
836 2 16 80 469 264 -1
837 4 16 81 469 264 -1
838 2 16 82 468 263 -1
839 2 16 81 467 263 -1
840 2 16 82 466 264 -1
841 2 16 81 466 264 -1
842 2 16 80 465 264 -1
843 2 16 79 464 265 -1
844 2 16 79 464 264 -1
845 2 16 80 465 263 -1
846 2 16 81 464 262 -1
847 4 16 82 464 262 -1
848 2 16 83 465 263 -1
849 4 16 82 466 263 -1
850 0 17 324 331 12 851
851 1 17 324 332 13 850
852 2 17 324 331 13 -1
853 3 17 323 330 12 -1
854 4 17 322 329 12 -1
855 5 17 323 329 12 -1
856 0 17 324 330 11 860
857 6 17 323 329 11 -1
858 3 17 322 329 10 -1
859 5 17 323 329 10 -1
860 1 17 323 330 10 856
861 7 17 324 329 11 -1
862 8 17 324 329 10 -1
863 6 17 323 330 11 -1
864 9 17 324 331 11 -1
865 8 17 323 332 10 -1
866 6 17 322 333 10 -1
867 6 17 321 334 9 -1
868 6 17 320 335 8 -1
869 7 17 321 335 7 -1
870 3 17 320 336 8 -1
871 5 17 319 335 9 -1
872 7 17 320 334 10 -1
873 5 17 320 335 10 -1
874 1 17 320 336 10 -1
875 3 17 321 336 10 -1
876 4 17 321 336 9 -1
877 3 17 322 336 8 -1
878 3 17 323 336 7 -1
879 5 17 324 335 6 -1
880 6 17 325 334 5 -1
881 4 17 325 335 4 -1
882 2 17 324 334 5 -1
883 2 17 323 334 5 -1
884 2 17 323 335 6 -1
885 2 17 323 336 5 -1
886 2 17 324 337 6 -1
887 4 17 323 337 5 -1
888 2 17 323 337 4 -1
889 2 17 324 338 4 -1
890 2 17 323 339 5 -1
891 2 17 323 340 4 -1
892 2 17 322 340 5 -1
893 2 17 323 340 6 -1
894 2 17 322 340 6 -1
895 2 17 321 341 5 -1
896 2 17 321 340 6 -1
897 4 17 320 340 6 -1
898 2 17 320 339 6 -1
899 4 17 319 339 5 -1
900 0 18 256 61 64 901
901 1 18 256 60 65 900
902 2 18 257 59 64 -1
903 3 18 258 60 64 -1
904 4 18 259 59 65 -1
905 5 18 258 58 66 -1
906 0 18 258 59 67 910
907 6 18 258 58 68 -1
908 3 18 258 58 67 -1
909 5 18 257 58 67 -1
910 1 18 257 58 66 906
911 7 18 257 59 66 -1
912 8 18 256 59 65 -1
913 6 18 255 60 65 -1
914 9 18 255 60 64 -1
915 8 18 254 59 63 -1
916 6 18 254 59 62 -1
917 6 18 255 59 63 -1
918 6 18 254 58 64 -1
919 7 18 253 57 64 -1
920 3 18 252 57 63 -1
921 5 18 253 56 62 -1
922 7 18 254 55 61 -1
923 5 18 253 55 61 -1
924 1 18 252 56 61 -1
925 3 18 251 55 60 -1
926 4 18 251 54 59 -1
927 3 18 252 55 60 -1
928 3 18 251 55 61 -1
929 5 18 250 54 61 -1
930 6 18 251 54 61 -1
931 4 18 252 53 62 -1
932 2 18 252 52 61 -1
933 2 18 251 51 62 -1
934 2 18 252 50 63 -1
935 2 18 252 49 64 -1
936 2 18 253 48 63 -1
937 4 18 254 47 63 -1
938 2 18 254 48 64 -1
939 2 18 255 49 65 -1
940 2 18 256 50 66 -1
941 2 18 257 49 65 -1
942 2 18 257 48 64 -1
943 2 18 258 47 65 -1
944 2 18 257 47 66 -1
945 2 18 258 47 66 -1
946 2 18 258 48 65 -1
947 4 18 258 49 64 -1
948 2 18 257 48 65 -1
949 4 18 258 47 64 -1
950 0 19 351 55 413 951
951 1 19 351 56 412 950
952 2 19 352 57 413 -1
953 3 19 353 58 414 -1
954 4 19 352 59 415 -1
955 5 19 351 58 414 -1
956 0 19 350 59 413 960
957 6 19 349 60 414 -1
958 3 19 349 61 414 -1
959 5 19 350 60 415 -1
960 1 19 349 59 414 956
961 7 19 350 58 415 -1
962 8 19 350 57 416 -1
963 6 19 349 58 416 -1
964 9 19 350 58 417 -1
965 8 19 349 59 418 -1
966 6 19 349 58 419 -1
967 6 19 348 58 418 -1
968 6 19 348 59 417 -1
969 7 19 348 58 417 -1
970 3 19 348 57 418 -1
971 5 19 347 57 417 -1
972 7 19 347 56 416 -1
973 5 19 348 55 415 -1
974 1 19 348 54 415 -1
975 3 19 347 55 415 -1
976 4 19 346 54 415 -1
977 3 19 346 53 415 -1
978 3 19 345 53 415 -1
979 5 19 346 52 416 -1
980 6 19 346 52 415 -1
981 4 19 346 51 415 -1
982 2 19 347 50 415 -1
983 2 19 346 49 414 -1
984 2 19 346 50 415 -1
985 2 19 345 49 414 -1
986 2 19 346 49 413 -1
987 4 19 346 48 413 -1
988 2 19 346 47 413 -1
989 2 19 345 48 413 -1
990 2 19 344 47 413 -1
991 2 19 344 47 412 -1
992 2 19 343 48 411 -1
993 2 19 344 49 410 -1
994 2 19 343 50 409 -1
995 2 19 344 49 409 -1
996 2 19 343 49 410 -1
997 4 19 343 48 410 -1
998 2 19 344 47 410 -1
999 4 19 343 46 411 -1
1000 0 20 404 482 239 1001
1001 1 20 403 482 238 1000
1002 2 20 404 482 238 -1
1003 3 20 405 482 239 -1
1004 4 20 404 483 238 -1
1005 5 20 403 484 239 -1
1006 0 20 403 483 238 1010
1007 6 20 402 482 238 -1
1008 3 20 401 483 237 -1
1009 5 20 402 482 236 -1
1010 1 20 403 482 237 1006
1011 7 20 403 481 238 -1
1012 8 20 404 481 238 -1
1013 6 20 403 482 239 -1
1014 9 20 402 483 240 -1
1015 8 20 401 482 241 -1
1016 6 20 400 483 240 -1
1017 6 20 399 482 241 -1
1018 6 20 400 483 242 -1
1019 7 20 399 483 241 -1
1020 3 20 400 482 241 -1
1021 5 20 399 482 242 -1
1022 7 20 399 481 241 -1
1023 5 20 398 480 242 -1
1024 1 20 398 481 241 -1
1025 3 20 399 480 242 -1
1026 4 20 400 481 242 -1
1027 3 20 400 480 243 -1
1028 3 20 399 479 242 -1
1029 5 20 398 478 242 -1
1030 6 20 398 477 243 -1
1031 4 20 398 477 244 -1
1032 2 20 399 477 245 -1
1033 2 20 400 476 244 -1
1034 2 20 400 476 245 -1
1035 2 20 401 475 244 -1
1036 2 20 400 476 243 -1
1037 4 20 399 476 243 -1
1038 2 20 398 475 242 -1
1039 2 20 399 474 243 -1
1040 2 20 399 474 242 -1
1041 2 20 399 475 242 -1
1042 2 20 400 475 241 -1
1043 2 20 400 475 242 -1
1044 2 20 400 474 243 -1
1045 2 20 399 473 244 -1
1046 2 20 400 473 245 -1
1047 4 20 399 473 246 -1
1048 2 20 398 474 246 -1
1049 4 20 399 475 245 -1
1050 0 21 233 38 493 1051
1051 1 21 234 37 493 1050
1052 2 21 233 36 493 -1
1053 3 21 233 35 493 -1
1054 4 21 234 34 492 -1
1055 5 21 233 35 491 -1
1056 0 21 233 34 491 1060
1057 6 21 233 34 492 -1
1058 3 21 232 35 491 -1
1059 5 21 231 34 492 -1
1060 1 21 232 33 491 1056
1061 7 21 233 32 492 -1
1062 8 21 234 31 493 -1
1063 6 21 233 32 493 -1
1064 9 21 233 32 494 -1
1065 8 21 232 32 493 -1
1066 6 21 233 31 493 -1
1067 6 21 233 30 492 -1
1068 6 21 233 29 493 -1
1069 7 21 233 30 494 -1
1070 3 21 233 29 494 -1
1071 5 21 232 29 495 -1
1072 7 21 232 30 494 -1
1073 5 21 232 30 493 -1
1074 1 21 232 29 493 -1
1075 3 21 232 28 493 -1
1076 4 21 231 27 492 -1
1077 3 21 231 27 491 -1
1078 3 21 231 28 490 -1
1079 5 21 231 27 490 -1
1080 6 21 232 28 489 -1
1081 4 21 233 27 490 -1
1082 2 21 233 26 489 -1
1083 2 21 234 27 490 -1
1084 2 21 235 28 489 -1
1085 2 21 235 29 489 -1
1086 2 21 235 28 490 -1
1087 4 21 236 27 490 -1
1088 2 21 237 26 489 -1
1089 2 21 238 25 488 -1
1090 2 21 237 26 487 -1
1091 2 21 237 26 488 -1
1092 2 21 237 27 487 -1
1093 2 21 238 27 488 -1
1094 2 21 238 26 489 -1
1095 2 21 237 25 490 -1
1096 2 21 236 24 491 -1
1097 4 21 237 24 491 -1
1098 2 21 236 23 492 -1
1099 4 21 237 24 493 -1
1100 0 22 476 439 180 1101
1101 1 22 475 438 181 1100
1102 2 22 476 437 182 -1
1103 3 22 475 438 182 -1
1104 4 22 475 439 182 -1
1105 5 22 476 440 183 -1
1106 0 22 477 440 182 1110
1107 6 22 477 439 182 -1
1108 3 22 478 439 181 -1
1109 5 22 479 439 182 -1
1110 1 22 478 440 181 1106
1111 7 22 477 441 182 -1
1112 8 22 476 442 182 -1
1113 6 22 475 443 183 -1
1114 9 22 474 442 183 -1
1115 8 22 473 443 183 -1
1116 6 22 473 443 182 -1
1117 6 22 474 443 181 -1
1118 6 22 475 442 180 -1
1119 7 22 475 441 180 -1
1120 3 22 474 442 179 -1
1121 5 22 474 441 180 -1
1122 7 22 473 441 179 -1
1123 5 22 473 441 178 -1
1124 1 22 472 441 179 -1
1125 3 22 471 441 178 -1
1126 4 22 472 441 178 -1
1127 3 22 471 441 177 -1
1128 3 22 472 441 176 -1
1129 5 22 471 441 175 -1
1130 6 22 471 442 174 -1
1131 4 22 472 443 175 -1
1132 2 22 472 443 176 -1
1133 2 22 471 444 175 -1
1134 2 22 472 445 176 -1
1135 2 22 472 445 177 -1
1136 2 22 471 445 176 -1
1137 4 22 471 444 177 -1
1138 2 22 470 444 176 -1
1139 2 22 471 443 176 -1
1140 2 22 470 443 175 -1
1141 2 22 469 442 174 -1
1142 2 22 470 441 173 -1
1143 2 22 471 441 174 -1
1144 2 22 471 440 173 -1
1145 2 22 472 440 173 -1
1146 2 22 471 439 174 -1
1147 4 22 470 439 174 -1
1148 2 22 469 440 175 -1
1149 4 22 468 441 174 -1
1150 0 23 431 25 328 1151
1151 1 23 432 25 328 1150
1152 2 23 432 25 329 -1
1153 3 23 433 24 329 -1
1154 4 23 434 25 329 -1
1155 5 23 435 24 328 -1
1156 0 23 435 23 327 1160
1157 6 23 434 24 326 -1
1158 3 23 433 23 326 -1
1159 5 23 434 23 326 -1
1160 1 23 435 22 327 1156
1161 7 23 434 21 327 -1
1162 8 23 433 21 326 -1
1163 6 23 432 21 327 -1
1164 9 23 433 22 326 -1
1165 8 23 434 22 325 -1
1166 6 23 435 23 324 -1
1167 6 23 435 22 325 -1
1168 6 23 436 21 325 -1
1169 7 23 435 22 326 -1
1170 3 23 436 21 327 -1
1171 5 23 436 21 328 -1
1172 7 23 436 20 329 -1
1173 5 23 435 21 329 -1
1174 1 23 436 22 329 -1
1175 3 23 435 23 328 -1
1176 4 23 434 24 329 -1
1177 3 23 435 25 330 -1
1178 3 23 436 26 331 -1
1179 5 23 435 25 331 -1
1180 6 23 435 25 332 -1
1181 4 23 434 24 332 -1
1182 2 23 434 25 331 -1
1183 2 23 433 24 332 -1
1184 2 23 433 23 333 -1
1185 2 23 433 24 334 -1
1186 2 23 434 24 333 -1
1187 4 23 435 23 333 -1
1188 2 23 435 24 333 -1
1189 2 23 436 24 333 -1
1190 2 23 437 24 332 -1
1191 2 23 436 25 333 -1
1192 2 23 437 25 333 -1
1193 2 23 436 25 332 -1
1194 2 23 436 26 332 -1
1195 2 23 436 27 331 -1
1196 2 23 437 28 332 -1
1197 4 23 437 27 331 -1
1198 2 23 438 27 332 -1
1199 4 23 439 27 333 -1
1200 0 24 277 412 149 1201
1201 1 24 278 412 150 1200
1202 2 24 279 411 149 -1
1203 3 24 279 412 150 -1
1204 4 24 279 412 151 -1
1205 5 24 280 413 150 -1
1206 0 24 279 414 151 1210
1207 6 24 279 413 150 -1
1208 3 24 279 413 149 -1
1209 5 24 280 414 150 -1
1210 1 24 279 413 151 1206
1211 7 24 280 414 152 -1
1212 8 24 280 413 151 -1
1213 6 24 280 412 152 -1
1214 9 24 279 412 152 -1
1215 8 24 278 413 151 -1
1216 6 24 278 414 152 -1
1217 6 24 277 414 152 -1
1218 6 24 276 413 153 -1
1219 7 24 275 412 152 -1
1220 3 24 275 412 153 -1
1221 5 24 274 413 153 -1
1222 7 24 273 412 153 -1
1223 5 24 273 411 152 -1
1224 1 24 274 410 151 -1
1225 3 24 274 410 150 -1
1226 4 24 275 410 149 -1
1227 3 24 275 409 148 -1
1228 3 24 276 410 148 -1
1229 5 24 275 409 149 -1
1230 6 24 276 408 149 -1
1231 4 24 275 407 149 -1
1232 2 24 276 406 148 -1
1233 2 24 277 406 147 -1
1234 2 24 277 405 148 -1
1235 2 24 278 404 149 -1
1236 2 24 277 404 150 -1
1237 4 24 276 404 149 -1
1238 2 24 277 404 149 -1
1239 2 24 276 403 150 -1
1240 2 24 277 402 149 -1
1241 2 24 278 402 148 -1
1242 2 24 278 401 147 -1
1243 2 24 279 402 148 -1
1244 2 24 278 403 149 -1
1245 2 24 279 404 149 -1
1246 2 24 278 403 148 -1
1247 4 24 279 404 148 -1
1248 2 24 280 404 149 -1
1249 4 24 281 404 148 -1
1250 0 25 26 436 459 1251
1251 1 25 27 435 460 1250
1252 2 25 26 435 461 -1
1253 3 25 27 436 461 -1
1254 4 25 27 435 461 -1
1255 5 25 26 434 460 -1
1256 0 25 26 434 459 -1
1257 6 25 25 434 458 -1
1258 3 25 26 435 457 -1
1259 5 25 25 435 458 -1
1260 1 25 26 435 459 -1
1261 7 25 27 435 459 -1
1262 8 25 27 436 460 -1
1263 6 25 28 437 460 -1
1264 9 25 29 437 461 -1
1265 8 25 29 438 460 -1
1266 6 25 30 437 460 -1
1267 6 25 31 437 461 -1
1268 6 25 31 436 462 -1
1269 7 25 30 436 462 -1
1270 3 25 29 437 463 -1
1271 5 25 30 438 464 -1
1272 7 25 30 437 463 -1
1273 5 25 31 436 464 -1
1274 1 25 31 436 463 -1
1275 3 25 32 437 463 -1
1276 4 25 32 438 464 -1
1277 3 25 31 438 463 -1
1278 3 25 32 438 463 -1
1279 5 25 32 439 462 -1
1280 6 25 33 440 463 -1
1281 4 25 34 441 463 -1
1282 2 25 35 441 462 -1
1283 2 25 34 440 461 -1
1284 2 25 33 441 460 -1
1285 2 25 33 440 460 -1
1286 2 25 34 439 459 -1
1287 4 25 34 439 458 -1
1288 2 25 34 440 459 -1