ITEM: TIMESTEP
0
ITEM: NUMBER OF ATOMS
10000
ITEM: BOX BOUNDS pp pp pp
0 500
0 500
0 500
ITEM: ATOMS id type mol x y z bP
0 0 0 218 268 483 1
1 1 0 217 269 482 0
2 2 0 216 268 483 -1
3 3 0 216 269 484 -1
4 4 0 216 270 485 -1
5 5 0 216 271 485 -1
6 0 0 215 270 486 10
7 6 0 215 270 487 -1
8 3 0 216 269 488 -1
9 5 0 216 270 487 -1
10 1 0 216 270 486 6
11 7 0 217 270 487 -1
12 8 0 217 269 488 -1
13 6 0 217 268 487 -1
14 9 0 217 267 486 -1
15 8 0 217 267 485 -1
16 6 0 218 268 486 -1
17 6 0 218 269 486 -1
18 6 0 219 269 487 -1
19 7 0 219 269 486 -1
20 3 0 218 270 485 -1
21 5 0 219 271 485 -1
22 7 0 219 271 484 -1
23 5 0 219 272 483 -1
24 1 0 218 273 483 -1
25 3 0 219 274 484 -1
26 4 0 220 273 484 -1
27 3 0 221 274 485 -1
28 3 0 220 273 486 -1
29 5 0 220 274 487 -1
30 6 0 221 274 487 -1
31 4 0 222 273 487 -1
32 2 0 223 272 486 -1
33 2 0 223 271 485 -1
34 2 0 222 272 486 -1
35 2 0 221 271 487 -1
36 2 0 222 272 488 -1
37 4 0 222 272 489 -1
38 2 0 221 271 489 -1
39 2 0 222 270 490 -1
40 2 0 223 270 490 -1
41 2 0 222 269 491 -1
42 2 0 223 268 491 -1
43 2 0 223 267 490 -1
44 2 0 223 268 489 -1
45 2 0 223 269 488 -1
46 2 0 223 270 487 -1
47 4 0 223 269 487 -1
48 2 0 222 269 488 -1
49 4 0 221 268 487 -1
50 0 1 178 371 371 60
51 1 1 179 372 372 56
52 2 1 178 373 371 -1
53 3 1 177 372 371 -1
54 4 1 177 371 372 -1
55 5 1 177 370 372 -1
56 0 1 178 371 372 51
57 6 1 178 372 373 -1
58 3 1 178 371 373 -1
59 5 1 179 371 373 -1
60 1 1 178 370 372 50
61 7 1 179 370 373 -1
62 8 1 179 370 372 -1
63 6 1 179 371 371 -1
64 9 1 178 371 370 -1
65 8 1 177 370 370 -1
66 6 1 178 369 369 -1
67 6 1 179 368 368 -1
68 6 1 178 367 368 -1
69 7 1 179 367 367 -1
70 3 1 180 367 367 -1
71 5 1 179 368 366 -1
72 7 1 178 368 367 -1
73 5 1 179 367 368 -1
74 1 1 180 366 369 -1
75 3 1 179 367 370 -1
76 4 1 179 367 371 -1
77 3 1 178 367 372 -1
78 3 1 177 368 373 -1
79 5 1 176 369 374 -1
80 6 1 175 370 374 -1
81 4 1 175 369 373 -1
82 2 1 176 368 374 -1
83 2 1 175 367 373 -1
84 2 1 175 367 374 -1
85 2 1 175 366 375 -1
86 2 1 175 365 376 -1
87 4 1 174 364 375 -1
88 2 1 174 365 376 -1
89 2 1 174 365 377 -1
90 2 1 174 366 376 -1
91 2 1 174 367 376 -1
92 2 1 175 368 376 -1
93 2 1 175 367 377 -1
94 2 1 176 367 376 -1
95 2 1 177 366 376 -1
96 2 1 176 366 377 -1
97 4 1 177 365 377 -1
98 2 1 177 364 376 -1
99 4 1 177 364 377 -1
100 0 2 211 499 15 101
101 1 2 210 498 15 100
102 2 2 211 498 14 -1
103 3 2 212 498 14 -1
104 4 2 212 497 13 -1
105 5 2 211 498 13 -1
106 0 2 210 499 12 110
107 6 2 209 498 11 -1
108 3 2 208 499 11 -1
109 5 2 208 499 12 -1
110 1 2 209 0 13 106
111 7 2 210 499 14 -1
112 8 2 209 0 15 -1
113 6 2 210 0 16 -1
114 9 2 210 0 17 -1
115 8 2 209 0 17 -1
116 6 2 208 499 18 -1
117 6 2 208 0 18 -1
118 6 2 209 499 19 -1
119 7 2 209 499 20 -1
120 3 2 210 498 19 -1
121 5 2 210 497 19 -1
122 7 2 211 497 20 -1
123 5 2 212 496 20 -1
124 1 2 211 496 20 -1
125 3 2 210 496 21 -1
126 4 2 210 495 22 -1
127 3 2 211 495 21 -1
128 3 2 210 495 20 -1
129 5 2 210 495 19 -1
130 6 2 211 494 19 -1
131 4 2 212 495 19 -1
132 2 2 212 496 19 -1
133 2 2 211 495 18 -1
134 2 2 211 496 19 -1
135 2 2 212 497 20 -1
136 2 2 213 498 21 -1
137 4 2 214 497 20 -1
138 2 2 215 496 20 -1
139 2 2 215 497 20 -1
140 2 2 215 496 21 -1
141 2 2 216 495 20 -1
142 2 2 215 496 19 -1
143 2 2 215 497 19 -1
144 2 2 216 497 20 -1
145 2 2 215 498 21 -1
146 2 2 216 499 22 -1
147 4 2 217 499 23 -1
148 2 2 216 498 23 -1
149 4 2 215 498 24 -1
150 0 3 269 115 326 174
151 1 3 269 116 325 -1
152 2 3 269 115 325 -1
153 3 3 270 114 326 -1
154 4 3 271 115 326 -1
155 5 3 272 116 327 -1
156 0 3 273 115 328 160
157 6 3 273 114 329 -1
158 3 3 274 113 330 -1
159 5 3 274 114 329 -1
160 1 3 274 114 328 156
161 7 3 273 115 327 -1
162 8 3 272 116 328 -1
163 6 3 272 116 329 -1
164 9 3 271 116 328 -1
165 8 3 270 116 328 -1
166 6 3 269 117 327 -1
167 6 3 270 117 327 -1
168 6 3 269 118 326 -1
169 7 3 270 118 325 -1
170 3 3 271 119 325 -1
171 5 3 272 118 325 -1
172 7 3 272 117 324 -1
173 5 3 271 116 325 -1
174 1 3 270 116 325 150
175 3 3 270 116 324 -1
176 4 3 270 115 323 -1
177 3 3 269 114 324 -1
178 3 3 270 115 324 -1
179 5 3 270 114 324 -1
180 6 3 271 114 324 -1
181 4 3 272 114 324 -1
182 2 3 273 114 325 -1
183 2 3 274 113 324 -1
184 2 3 274 114 323 -1
185 2 3 275 114 322 -1
186 2 3 275 115 321 -1
187 4 3 276 115 321 -1
188 2 3 275 114 320 -1
189 2 3 274 114 321 -1
190 2 3 273 114 322 -1
191 2 3 272 113 321 -1
192 2 3 273 113 321 -1
193 2 3 273 112 320 -1
194 2 3 272 112 320 -1
195 2 3 273 111 321 -1
196 2 3 273 110 320 -1
197 4 3 272 110 320 -1
198 2 3 273 109 320 -1
199 4 3 272 108 320 -1
200 0 4 338 497 459 201
201 1 4 337 498 460 200
202 2 4 336 497 459 -1
203 3 4 337 498 459 -1
204 4 4 338 499 459 -1
205 5 4 339 0 459 -1
206 0 4 339 1 459 210
207 6 4 340 1 460 -1
208 3 4 339 0 460 -1
209 5 4 338 1 459 -1
210 1 4 338 1 458 206
211 7 4 337 1 459 -1
212 8 4 336 2 458 -1
213 6 4 336 3 458 -1
214 9 4 337 3 458 -1
215 8 4 338 2 458 -1
216 6 4 339 3 458 -1
217 6 4 340 4 457 -1
218 6 4 339 4 457 -1
219 7 4 338 3 456 -1
220 3 4 338 4 456 -1
221 5 4 339 5 457 -1
222 7 4 339 4 456 -1
223 5 4 340 3 456 -1
224 1 4 340 2 457 -1
225 3 4 339 3 457 -1
226 4 4 338 4 458 -1
227 3 4 339 5 458 -1
228 3 4 339 6 457 -1
229 5 4 338 7 458 -1
230 6 4 338 7 457 -1
231 4 4 338 8 456 -1
232 2 4 337 8 456 -1
233 2 4 336 7 455 -1
234 2 4 337 7 456 -1
235 2 4 336 6 457 -1
236 2 4 336 7 457 -1
237 4 4 336 6 458 -1
238 2 4 335 7 458 -1
239 2 4 336 7 459 -1
240 2 4 336 8 460 -1
241 2 4 337 7 460 -1
242 2 4 337 8 460 -1
243 2 4 336 8 459 -1
244 2 4 336 9 460 -1
245 2 4 337 10 459 -1
246 2 4 336 9 458 -1
247 4 4 335 9 458 -1
248 2 4 334 8 459 -1
249 4 4 335 9 460 -1
250 0 5 11 15 278 251
251 1 5 12 15 279 250
252 2 5 11 14 278 -1
253 3 5 11 15 277 -1
254 4 5 12 15 276 -1
255 5 5 13 14 277 -1
256 0 5 12 13 278 260
257 6 5 12 12 277 -1
258 3 5 12 13 277 -1
259 5 5 11 14 276 -1
260 1 5 12 14 277 256
261 7 5 11 13 277 -1
262 8 5 12 13 276 -1
263 6 5 13 13 276 -1
264 9 5 14 12 276 -1
265 8 5 15 11 277 -1
266 6 5 15 10 278 -1
267 6 5 14 11 279 -1
268 6 5 14 10 280 -1
269 7 5 13 10 280 -1
270 3 5 12 10 280 -1
271 5 5 12 9 280 -1
272 7 5 11 10 280 -1
273 5 5 11 10 281 -1
274 1 5 12 10 282 -1
275 3 5 12 11 283 -1
276 4 5 11 12 284 -1
277 3 5 12 12 284 -1
278 3 5 13 11 284 -1
279 5 5 14 12 284 -1
280 6 5 13 13 285 -1
281 4 5 14 14 285 -1
282 2 5 15 13 284 -1
283 2 5 16 13 283 -1
284 2 5 17 13 283 -1
285 2 5 18 13 283 -1
286 2 5 19 13 283 -1
287 4 5 19 12 284 -1
288 2 5 20 13 283 -1
289 2 5 19 13 282 -1
290 2 5 20 12 283 -1
291 2 5 21 13 284 -1
292 2 5 22 13 285 -1
293 2 5 22 13 286 -1
294 2 5 22 12 286 -1
295 2 5 22 11 285 -1
296 2 5 21 12 286 -1
297 4 5 21 11 287 -1
298 2 5 22 10 286 -1
299 4 5 22 9 286 -1
300 0 6 231 63 459 -1
301 1 6 232 63 459 306
302 2 6 233 63 458 -1
303 3 6 234 64 458 -1
304 4 6 233 64 458 -1
305 5 6 232 63 458 -1
306 0 6 231 64 459 301
307 6 6 231 65 458 -1
308 3 6 230 66 458 -1
309 5 6 231 67 458 -1
310 1 6 232 67 459 -1
311 7 6 232 66 460 -1
312 8 6 233 66 461 -1
313 6 6 233 65 462 -1
314 9 6 234 64 463 -1
315 8 6 234 65 464 -1
316 6 6 233 64 464 -1
317 6 6 234 63 464 -1
318 6 6 233 63 464 -1
319 7 6 234 62 464 -1
320 3 6 235 62 464 -1
321 5 6 235 63 463 -1
322 7 6 234 64 464 -1
323 5 6 233 65 463 -1
324 1 6 232 64 463 -1
325 3 6 231 65 462 -1
326 4 6 232 65 461 -1
327 3 6 233 64 460 -1
328 3 6 232 65 459 -1
329 5 6 232 66 459 -1
330 6 6 233 67 459 -1
331 4 6 232 68 460 -1
332 2 6 232 67 461 -1
333 2 6 233 68 461 -1
334 2 6 234 69 462 -1
335 2 6 233 68 463 -1
336 2 6 232 68 464 -1
337 4 6 233 68 465 -1
338 2 6 232 67 464 -1
339 2 6 232 66 463 -1
340 2 6 232 65 462 -1
341 2 6 233 64 462 -1
342 2 6 233 63 463 -1
343 2 6 234 62 463 -1
344 2 6 233 62 462 -1
345 2 6 233 63 462 -1
346 2 6 234 63 463 -1
347 4 6 235 64 463 -1
348 2 6 235 65 462 -1
349 4 6 235 64 462 -1
350 0 7 264 414 179 351
351 1 7 264 414 180 350
352 2 7 264 415 181 -1
353 3 7 263 415 182 -1
354 4 7 262 415 183 -1
355 5 7 261 416 182 -1
356 0 7 262 417 181 360
357 6 7 262 417 182 -1
358 3 7 261 418 182 -1
359 5 7 261 417 181 -1
360 1 7 261 416 181 356
361 7 7 260 417 180 -1
362 8 7 260 418 179 -1
363 6 7 261 419 179 -1
364 9 7 261 418 179 -1
365 8 7 261 417 180 -1
366 6 7 260 416 180 -1
367 6 7 259 417 179 -1
368 6 7 258 418 178 -1
369 7 7 259 419 179 -1
370 3 7 258 419 178 -1
371 5 7 257 419 179 -1
372 7 7 258 418 180 -1
373 5 7 257 417 179 -1
374 1 7 258 417 179 -1
375 3 7 257 417 178 -1
376 4 7 258 416 178 -1
377 3 7 258 415 179 -1
378 3 7 258 414 179 -1
379 5 7 258 414 180 -1
380 6 7 259 414 179 -1
381 4 7 258 413 178 -1
382 2 7 258 412 179 -1
383 2 7 257 413 180 -1
384 2 7 257 413 179 -1
385 2 7 258 412 180 -1
386 2 7 257 412 181 -1
387 4 7 256 412 181 -1
388 2 7 256 411 181 -1
389 2 7 256 411 182 -1
390 2 7 256 411 183 -1
391 2 7 257 410 184 -1
392 2 7 257 409 185 -1
393 2 7 256 409 184 -1
394 2 7 256 408 185 -1
395 2 7 257 408 184 -1
396 2 7 256 407 185 -1
397 4 7 257 408 185 -1
398 2 7 257 408 186 -1
399 4 7 256 409 186 -1
400 0 8 319 481 152 401
401 1 8 319 482 153 400
402 2 8 318 481 152 -1
403 3 8 317 482 152 -1
404 4 8 318 481 151 -1
405 5 8 317 481 151 -1
406 0 8 318 482 151 410
407 6 8 317 483 150 -1
408 3 8 316 482 151 -1
409 5 8 316 482 150 -1
410 1 8 317 483 151 406
411 7 8 318 483 152 -1
412 8 8 317 484 151 -1
413 6 8 317 485 151 -1
414 9 8 316 484 152 -1
415 8 8 317 483 153 -1
416 6 8 317 483 154 -1
417 6 8 316 484 154 -1
418 6 8 316 483 155 -1
419 7 8 315 483 155 -1
420 3 8 314 483 156 -1
421 5 8 314 484 157 -1
422 7 8 313 484 158 -1
423 5 8 313 483 157 -1
424 1 8 314 484 156 -1
425 3 8 315 485 157 -1
426 4 8 315 485 158 -1
427 3 8 316 485 158 -1
428 3 8 317 486 158 -1
429 5 8 318 487 157 -1
430 6 8 317 486 157 -1
431 4 8 318 485 156 -1
432 2 8 319 484 155 -1
433 2 8 318 483 156 -1
434 2 8 317 484 155 -1
435 2 8 317 484 156 -1
436 2 8 316 484 156 -1
437 4 8 315 483 157 -1
438 2 8 316 482 157 -1
439 2 8 316 481 158 -1
440 2 8 316 482 159 -1
441 2 8 317 483 158 -1
442 2 8 318 484 159 -1
443 2 8 319 484 159 -1
444 2 8 319 484 158 -1
445 2 8 319 485 159 -1
446 2 8 320 486 159 -1
447 4 8 321 487 160 -1
448 2 8 321 487 161 -1
449 4 8 320 486 162 -1
450 0 9 439 106 298 -1
451 1 9 439 107 298 -1
452 2 9 440 106 299 -1
453 3 9 441 107 300 -1
454 4 9 440 108 300 -1
455 5 9 440 109 300 -1
456 0 9 441 108 301 460
457 6 9 442 107 302 -1
458 3 9 442 108 302 -1
459 5 9 442 108 303 -1
460 1 9 442 109 302 456
461 7 9 443 109 301 -1
462 8 9 444 110 301 -1
463 6 9 443 111 302 -1
464 9 9 442 112 302 -1
465 8 9 442 113 302 -1
466 6 9 441 113 301 -1
467 6 9 441 113 302 -1
468 6 9 442 114 303 -1
469 7 9 443 113 302 -1
470 3 9 443 113 303 -1
471 5 9 444 114 304 -1
472 7 9 443 115 305 -1
473 5 9 442 114 306 -1
474 1 9 441 115 305 -1
475 3 9 440 116 306 -1
476 4 9 440 117 306 -1
477 3 9 440 118 306 -1
478 3 9 441 119 307 -1
479 5 9 440 119 308 -1
480 6 9 439 119 309 -1
481 4 9 438 119 308 -1
482 2 9 437 120 309 -1
483 2 9 438 119 309 -1
484 2 9 438 119 310 -1
485 2 9 438 118 311 -1
486 2 9 438 117 310 -1
487 4 9 439 117 311 -1
488 2 9 439 116 312 -1
489 2 9 440 116 312 -1
490 2 9 441 116 313 -1
491 2 9 441 117 313 -1
492 2 9 441 118 312 -1
493 2 9 440 119 313 -1
494 2 9 440 119 314 -1
495 2 9 441 120 315 -1
496 2 9 442 121 315 -1
497 4 9 443 120 314 -1
498 2 9 442 119 313 -1
499 4 9 442 119 312 -1
500 0 10 275 137 3 501
501 1 10 276 136 3 500
502 2 10 275 137 4 -1
503 3 10 274 137 5 -1
504 4 10 274 138 5 -1
505 5 10 273 139 6 -1
506 0 10 274 140 7 510
507 6 10 274 139 6 -1
508 3 10 273 138 6 -1
509 5 10 274 138 7 -1
510 1 10 275 139 7 506
511 7 10 275 140 8 -1
512 8 10 274 141 9 -1
513 6 10 273 140 10 -1
514 9 10 273 141 10 -1
515 8 10 272 142 11 -1
516 6 10 272 142 12 -1
517 6 10 273 141 13 -1
518 6 10 273 142 13 -1
519 7 10 274 143 13 -1
520 3 10 275 143 13 -1
521 5 10 274 142 14 -1
522 7 10 274 142 13 -1
523 5 10 273 141 14 -1
524 1 10 274 140 15 -1
525 3 10 275 141 14 -1
526 4 10 274 141 14 -1
527 3 10 274 140 14 -1
528 3 10 273 140 15 -1
529 5 10 272 140 14 -1
530 6 10 272 141 14 -1
531 4 10 271 142 14 -1
532 2 10 270 141 13 -1
533 2 10 269 142 13 -1
534 2 10 268 141 12 -1
535 2 10 268 140 13 -1
536 2 10 268 139 12 -1
537 4 10 267 140 13 -1
538 2 10 267 141 14 -1
539 2 10 267 142 13 -1
540 2 10 266 143 12 -1
541 2 10 266 144 13 -1
542 2 10 267 145 13 -1
543 2 10 267 145 12 -1
544 2 10 267 145 11 -1
545 2 10 266 145 11 -1
546 2 10 266 144 12 -1
547 4 10 265 145 12 -1
548 2 10 265 145 11 -1
549 4 10 264 146 10 -1
550 0 11 252 254 32 551
551 1 11 251 254 33 550
552 2 11 252 253 33 -1
553 3 11 253 253 34 -1
554 4 11 252 253 35 -1
555 5 11 253 254 34 -1
556 0 11 252 254 35 560
557 6 11 253 253 36 -1
558 3 11 253 254 37 -1
559 5 11 252 254 36 -1
560 1 11 252 255 35 556
561 7 11 251 255 36 -1
562 8 11 251 255 37 -1
563 6 11 251 254 37 -1
564 9 11 250 254 37 -1
565 8 11 250 255 38 -1
566 6 11 250 254 39 -1
567 6 11 251 253 38 -1
568 6 11 250 253 39 -1
569 7 11 250 254 40 -1
570 3 11 249 255 40 -1
571 5 11 249 256 39 -1
572 7 11 248 257 38 -1
573 5 11 247 256 38 -1
574 1 11 246 255 39 -1
575 3 11 247 256 39 -1
576 4 11 247 256 40 -1
577 3 11 248 257 41 -1
578 3 11 249 256 40 -1
579 5 11 250 255 41 -1
580 6 11 250 256 42 -1
581 4 11 251 257 41 -1
582 2 11 251 257 40 -1
583 2 11 250 258 40 -1
584 2 11 251 259 41 -1
585 2 11 250 258 41 -1
586 2 11 250 257 42 -1
587 4 11 251 258 42 -1
588 2 11 252 257 42 -1
589 2 11 253 258 41 -1
590 2 11 254 257 40 -1
591 2 11 253 256 41 -1
592 2 11 252 255 40 -1
593 2 11 253 255 39 -1
594 2 11 254 254 40 -1
595 2 11 254 254 41 -1
596 2 11 254 254 42 -1
597 4 11 255 253 43 -1
598 2 11 256 253 43 -1
599 4 11 257 253 43 -1
600 0 12 311 116 199 601
601 1 12 312 115 200 600
602 2 12 311 115 199 -1
603 3 12 311 114 198 -1
604 4 12 312 113 198 -1
605 5 12 311 113 199 -1
606 0 12 310 113 200 610
607 6 12 311 113 200 -1
608 3 12 312 113 199 -1
609 5 12 311 112 199 -1
610 1 12 310 112 199 606
611 7 12 309 113 200 -1
612 8 12 309 112 200 -1
613 6 12 309 111 200 -1
614 9 12 309 112 201 -1
615 8 12 308 112 202 -1
616 6 12 309 113 202 -1
617 6 12 308 114 203 -1
618 6 12 307 115 202 -1
619 7 12 307 116 201 -1
620 3 12 306 115 201 -1
621 5 12 305 116 201 -1
622 7 12 304 117 200 -1
623 5 12 303 116 199 -1
624 1 12 302 116 198 -1
625 3 12 302 115 199 -1
626 4 12 301 114 198 -1
627 3 12 302 114 197 -1
628 3 12 302 114 198 -1
629 5 12 302 115 197 -1
630 6 12 303 115 197 -1
631 4 12 302 114 196 -1
632 2 12 301 115 196 -1
633 2 12 302 116 195 -1
634 2 12 302 115 195 -1
635 2 12 302 116 194 -1
636 2 12 303 116 195 -1
637 4 12 304 116 194 -1
638 2 12 305 115 193 -1
639 2 12 304 114 192 -1
640 2 12 303 115 192 -1
641 2 12 304 114 191 -1
642 2 12 303 115 190 -1
643 2 12 302 114 189 -1
644 2 12 303 113 190 -1
645 2 12 304 113 190 -1
646 2 12 305 112 190 -1
647 4 12 305 112 191 -1
648 2 12 304 112 192 -1
649 4 12 305 112 193 -1
650 0 13 367 243 295 651
651 1 13 367 244 296 650
652 2 13 366 245 297 -1
653 3 13 367 244 297 -1
654 4 13 367 245 296 -1
655 5 13 366 246 297 -1
656 0 13 366 245 296 -1
657 6 13 366 245 295 -1
658 3 13 366 244 294 -1
659 5 13 367 245 295 -1
660 1 13 367 246 296 -1
661 7 13 366 246 295 -1
662 8 13 365 245 295 -1
663 6 13 365 245 294 -1
664 9 13 365 246 294 -1
665 8 13 366 246 293 -1
666 6 13 365 245 293 -1
667 6 13 364 246 294 -1
668 6 13 363 245 295 -1
669 7 13 364 246 295 -1
670 3 13 363 245 296 -1
671 5 13 364 245 296 -1
672 7 13 363 244 297 -1
673 5 13 364 245 298 -1
674 1 13 364 245 299 -1
675 3 13 365 245 299 -1
676 4 13 366 246 300 -1
677 3 13 365 246 299 -1
678 3 13 365 245 298 -1
679 5 13 365 244 297 -1
680 6 13 365 245 296 -1
681 4 13 364 245 297 -1
682 2 13 363 244 296 -1
683 2 13 363 244 295 -1
684 2 13 364 244 296 -1
685 2 13 365 243 296 -1
686 2 13 366 242 296 -1
687 4 13 365 243 295 -1
688 2 13 364 243 294 -1
689 2 13 363 242 294 -1
690 2 13 362 241 294 -1
691 2 13 362 242 294 -1
692 2 13 362 242 293 -1
693 2 13 361 243 293 -1
694 2 13 360 243 292 -1
695 2 13 359 244 292 -1
696 2 13 360 244 291 -1
697 4 13 361 243 290 -1
698 2 13 362 244 289 -1
699 4 13 361 245 290 -1
700 0 14 219 80 63 701
701 1 14 219 80 62 700
702 2 14 219 79 63 -1
703 3 14 218 79 63 -1
704 4 14 217 80 63 -1
705 5 14 218 81 64 -1
706 0 14 219 80 65 -1
707 6 14 219 80 66 -1
708 3 14 218 79 66 -1
709 5 14 219 79 65 -1
710 1 14 220 79 66 -1
711 7 14 220 80 66 -1
712 8 14 220 80 65 -1
713 6 14 221 80 66 -1
714 9 14 220 80 67 -1
715 8 14 221 81 68 -1
716 6 14 220 82 68 -1
717 6 14 219 82 68 -1
718 6 14 219 83 68 -1
719 7 14 218 82 69 -1
720 3 14 217 81 69 -1
721 5 14 218 81 69 -1
722 7 14 218 80 70 -1
723 5 14 219 79 69 -1
724 1 14 219 79 70 -1
725 3 14 218 80 69 -1
726 4 14 219 79 68 -1
727 3 14 218 79 69 -1
728 3 14 217 78 70 -1
729 5 14 216 78 69 -1
730 6 14 215 78 68 -1
731 4 14 215 79 68 -1
732 2 14 215 78 67 -1
733 2 14 216 77 67 -1
734 2 14 216 76 68 -1
735 2 14 216 75 67 -1
736 2 14 215 75 66 -1
737 4 14 216 74 66 -1
738 2 14 217 73 65 -1
739 2 14 216 74 64 -1
740 2 14 216 73 64 -1
741 2 14 215 74 65 -1
742 2 14 215 73 64 -1
743 2 14 216 72 64 -1
744 2 14 215 72 64 -1
745 2 14 216 72 65 -1
746 2 14 217 71 64 -1
747 4 14 216 70 63 -1
748 2 14 216 71 63 -1
749 4 14 217 72 63 -1
750 0 15 127 346 231 751
751 1 15 126 345 232 750
752 2 15 127 346 232 -1
753 3 15 128 347 231 -1
754 4 15 127 347 231 -1
755 5 15 127 347 232 -1
756 0 15 126 348 233 760
757 6 15 126 348 232 -1
758 3 15 126 349 231 -1
759 5 15 125 349 232 -1
760 1 15 125 348 233 756
761 7 15 124 348 233 -1
762 8 15 125 349 234 -1
763 6 15 125 348 235 -1
764 9 15 126 347 236 -1
765 8 15 125 347 235 -1
766 6 15 126 346 235 -1
767 6 15 126 345 235 -1
768 6 15 125 344 235 -1
769 7 15 126 345 234 -1
770 3 15 126 345 233 -1
771 5 15 127 345 232 -1
772 7 15 127 345 231 -1
773 5 15 128 345 231 -1
774 1 15 127 345 230 -1
775 3 15 126 346 230 -1
776 4 15 126 346 229 -1
777 3 15 126 347 228 -1
778 3 15 125 348 227 -1
779 5 15 124 347 226 -1
780 6 15 123 346 225 -1
781 4 15 124 345 225 -1
782 2 15 123 345 226 -1
783 2 15 123 344 225 -1
784 2 15 122 343 225 -1
785 2 15 123 342 224 -1
786 2 15 124 342 225 -1
787 4 15 123 341 226 -1
788 2 15 123 340 227 -1
789 2 15 123 340 228 -1
790 2 15 123 341 228 -1
791 2 15 122 342 228 -1
792 2 15 122 343 227 -1
793 2 15 123 342 228 -1
794 2 15 122 343 228 -1
795 2 15 122 342 229 -1
796 2 15 122 343 230 -1
797 4 15 123 342 231 -1
798 2 15 122 342 231 -1
799 4 15 122 342 230 -1
800 0 16 432 35 349 801
801 1 16 433 34 350 800
802 2 16 432 33 351 -1
803 3 16 433 33 352 -1
804 4 16 434 32 352 -1
805 5 16 433 32 352 -1
806 0 16 432 32 351 810
807 6 16 431 31 351 -1
808 3 16 431 31 352 -1
809 5 16 432 30 351 -1
810 1 16 432 31 351 806
811 7 16 433 31 352 -1
812 8 16 433 30 352 -1
813 6 16 434 31 351 -1
814 9 16 435 31 350 -1
815 8 16 435 32 349 -1
816 6 16 434 32 348 -1
817 6 16 433 31 347 -1
818 6 16 434 32 346 -1
819 7 16 435 31 347 -1
820 3 16 436 32 346 -1
821 5 16 437 31 345 -1
822 7 16 438 30 344 -1
823 5 16 439 29 344 -1
824 1 16 440 28 345 -1
825 3 16 439 28 345 -1
826 4 16 440 28 346 -1
827 3 16 441 29 345 -1
828 3 16 442 30 344 -1
829 5 16 443 31 345 -1
830 6 16 442 31 346 -1
831 4 16 441 30 345 -1
832 2 16 442 30 345 -1
833 2 16 441 30 344 -1
834 2 16 441 30 343 -1
835 2 16 441 31 342 -1
836 2 16 440 32 343 -1
837 4 16 440 32 344 -1
838 2 16 441 33 343 -1
839 2 16 442 32 343 -1
840 2 16 441 31 343 -1
841 2 16 441 32 344 -1
842 2 16 441 33 345 -1
843 2 16 440 33 345 -1
844 2 16 440 34 344 -1
845 2 16 439 35 343 -1
846 2 16 440 34 342 -1
847 4 16 441 35 341 -1
848 2 16 441 36 340 -1
849 4 16 442 35 340 -1
850 0 17 234 6 472 851
851 1 17 233 6 473 850
852 2 17 233 5 473 -1
853 3 17 232 4 474 -1
854 4 17 231 5 475 -1
855 5 17 231 5 474 -1
856 0 17 230 6 474 860
857 6 17 230 7 474 -1
858 3 17 229 7 475 -1
859 5 17 229 6 476 -1
860 1 17 230 5 475 856
861 7 17 229 5 474 -1
862 8 17 230 4 473 -1
863 6 17 229 4 473 -1
864 9 17 229 5 473 -1
865 8 17 230 5 472 -1
866 6 17 230 6 471 -1
867 6 17 230 5 471 -1
868 6 17 231 5 470 -1
869 7 17 231 6 469 -1
870 3 17 232 6 468 -1
871 5 17 233 7 468 -1
872 7 17 234 7 468 -1
873 5 17 235 7 468 -1
874 1 17 235 6 467 -1
875 3 17 234 5 466 -1
876 4 17 234 4 466 -1
877 3 17 235 5 465 -1
878 3 17 236 4 464 -1
879 5 17 236 4 465 -1
880 6 17 235 3 466 -1
881 4 17 234 2 466 -1
882 2 17 235 3 467 -1
883 2 17 236 4 468 -1
884 2 17 235 3 469 -1
885 2 17 234 3 468 -1
886 2 17 235 2 469 -1
887 4 17 236 1 468 -1
888 2 17 237 0 467 -1
889 2 17 238 0 466 -1
890 2 17 237 499 465 -1
891 2 17 238 0 464 -1
892 2 17 239 499 464 -1
893 2 17 240 0 463 -1
894 2 17 239 0 463 -1
895 2 17 239 0 462 -1
896 2 17 238 1 461 -1
897 4 17 237 0 460 -1
898 2 17 238 0 459 -1
899 4 17 237 1 459 -1
900 0 18 305 407 161 901
901 1 18 304 407 161 900
902 2 18 305 408 161 -1
903 3 18 306 407 162 -1
904 4 18 307 406 162 -1
905 5 18 306 406 163 -1
906 0 18 306 407 164 910
907 6 18 307 408 163 -1
908 3 18 307 408 164 -1
909 5 18 306 408 165 -1
910 1 18 305 408 165 906
911 7 18 304 409 164 -1
912 8 18 304 408 164 -1
913 6 18 303 407 165 -1
914 9 18 302 406 164 -1
915 8 18 302 407 165 -1
916 6 18 302 408 166 -1
917 6 18 301 407 166 -1
918 6 18 300 406 165 -1
919 7 18 300 407 165 -1
920 3 18 299 406 165 -1
921 5 18 300 405 164 -1
922 7 18 300 405 163 -1
923 5 18 300 406 163 -1
924 1 18 300 406 162 -1
925 3 18 299 405 163 -1
926 4 18 300 404 163 -1
927 3 18 301 404 162 -1
928 3 18 302 404 163 -1
929 5 18 301 403 163 -1
930 6 18 302 402 162 -1
931 4 18 301 401 163 -1
932 2 18 300 401 164 -1
933 2 18 299 400 164 -1
934 2 18 299 400 165 -1
935 2 18 299 399 165 -1
936 2 18 299 398 166 -1
937 4 18 300 399 166 -1
938 2 18 301 400 167 -1
939 2 18 301 401 167 -1
940 2 18 300 401 166 -1
941 2 18 299 401 167 -1
942 2 18 300 401 168 -1
943 2 18 300 402 167 -1
944 2 18 299 403 166 -1
945 2 18 299 403 167 -1
946 2 18 300 404 166 -1
947 4 18 301 403 165 -1
948 2 18 300 403 165 -1
949 4 18 299 404 165 -1
950 0 19 430 31 195 951
951 1 19 430 31 194 950
952 2 19 431 30 194 -1
953 3 19 430 30 193 -1
954 4 19 429 30 192 -1
955 5 19 430 29 191 -1
956 0 19 431 29 190 960
957 6 19 432 30 189 -1
958 3 19 431 31 190 -1
959 5 19 430 30 191 -1
960 1 19 431 29 191 956
961 7 19 430 30 190 -1
962 8 19 431 31 189 -1
963 6 19 432 31 190 -1
964 9 19 432 32 191 -1
965 8 19 433 32 190 -1
966 6 19 432 32 189 -1
967 6 19 433 33 189 -1
968 6 19 434 33 190 -1
969 7 19 434 33 189 -1
970 3 19 435 34 190 -1
971 5 19 434 33 191 -1
972 7 19 433 33 190 -1
973 5 19 433 32 191 -1
974 1 19 432 32 192 -1
975 3 19 432 31 191 -1
976 4 19 431 31 192 -1
977 3 19 430 31 193 -1
978 3 19 430 32 192 -1
979 5 19 429 33 193 -1
980 6 19 429 33 194 -1
981 4 19 428 34 194 -1
982 2 19 427 34 193 -1
983 2 19 427 35 193 -1
984 2 19 428 36 194 -1
985 2 19 429 36 194 -1
986 2 19 429 35 194 -1
987 4 19 429 35 193 -1
988 2 19 429 34 192 -1
989 2 19 429 34 191 -1
990 2 19 429 35 192 -1
991 2 19 428 36 191 -1
992 2 19 428 37 190 -1
993 2 19 429 38 191 -1
994 2 19 429 38 192 -1
995 2 19 430 39 193 -1
996 2 19 431 38 193 -1
997 4 19 431 38 194 -1
998 2 19 432 39 195 -1
999 4 19 433 39 196 -1
1000 0 20 452 222 229 1010
1001 1 20 452 223 230 1006
1002 2 20 453 224 231 -1
1003 3 20 452 223 231 -1
1004 4 20 452 222 232 -1
1005 5 20 452 221 231 -1
1006 0 20 453 222 230 1001
1007 6 20 454 222 231 -1
1008 3 20 455 222 230 -1
1009 5 20 454 223 230 -1
1010 1 20 453 223 229 1000
1011 7 20 454 223 229 -1
1012 8 20 455 222 229 -1
1013 6 20 456 222 230 -1
1014 9 20 455 221 229 -1
1015 8 20 456 222 228 -1
1016 6 20 456 221 227 -1
1017 6 20 457 221 227 -1
1018 6 20 457 222 226 -1
1019 7 20 456 223 225 -1
1020 3 20 457 223 224 -1
1021 5 20 457 223 225 -1
1022 7 20 457 223 226 -1
1023 5 20 457 222 225 -1
1024 1 20 458 221 226 -1
1025 3 20 459 220 226 -1
1026 4 20 460 220 226 -1
1027 3 20 461 220 227 -1
1028 3 20 461 219 227 -1
1029 5 20 462 220 226 -1
1030 6 20 463 221 227 -1
1031 4 20 462 222 227 -1
1032 2 20 462 221 227 -1
1033 2 20 462 222 228 -1
1034 2 20 463 222 227 -1
1035 2 20 464 221 228 -1
1036 2 20 465 220 227 -1
1037 4 20 464 220 227 -1
1038 2 20 465 219 228 -1
1039 2 20 466 220 227 -1
1040 2 20 467 219 226 -1
1041 2 20 466 219 227 -1
1042 2 20 465 219 226 -1
1043 2 20 464 218 226 -1
1044 2 20 463 217 227 -1
1045 2 20 463 218 227 -1
1046 2 20 463 218 228 -1
1047 4 20 464 218 229 -1
1048 2 20 464 219 230 -1
1049 4 20 463 220 230 -1
1050 0 21 92 250 406 1051
1051 1 21 93 249 406 1050
1052 2 21 92 249 406 -1
1053 3 21 93 248 407 -1
1054 4 21 92 249 407 -1
1055 5 21 92 248 407 -1
1056 0 21 91 249 408 1060
1057 6 21 90 249 407 -1
1058 3 21 89 250 407 -1
1059 5 21 90 249 408 -1
1060 1 21 90 249 409 1056
1061 7 21 89 248 409 -1
1062 8 21 89 247 408 -1
1063 6 21 90 246 408 -1
1064 9 21 89 245 408 -1
1065 8 21 90 245 408 -1
1066 6 21 90 245 407 -1
1067 6 21 91 245 407 -1
1068 6 21 90 245 406 -1
1069 7 21 89 245 405 -1
1070 3 21 88 244 404 -1
1071 5 21 87 244 405 -1
1072 7 21 88 245 406 -1
1073 5 21 87 245 406 -1
1074 1 21 86 244 406 -1
1075 3 21 86 243 405 -1
1076 4 21 87 243 406 -1
1077 3 21 88 242 407 -1
1078 3 21 88 243 406 -1
1079 5 21 87 244 407 -1
1080 6 21 87 245 408 -1
1081 4 21 88 244 407 -1
1082 2 21 89 244 407 -1
1083 2 21 89 243 408 -1
1084 2 21 88 243 409 -1
1085 2 21 89 242 409 -1
1086 2 21 89 241 410 -1
1087 4 21 90 240 411 -1
1088 2 21 89 240 412 -1
1089 2 21 88 241 413 -1
1090 2 21 89 240 413 -1
1091 2 21 89 241 413 -1
1092 2 21 90 242 414 -1
1093 2 21 91 243 413 -1
1094 2 21 92 243 413 -1
1095 2 21 92 244 412 -1
1096 2 21 92 245 412 -1
1097 4 21 92 245 411 -1
1098 2 21 91 245 412 -1
1099 4 21 91 244 413 -1
1100 0 22 327 212 200 1101
1101 1 22 326 211 201 1100
1102 2 22 326 210 200 -1
1103 3 22 326 209 200 -1
1104 4 22 325 210 199 -1
1105 5 22 324 209 198 -1
1106 0 22 323 209 199 1110
1107 6 22 323 208 199 -1
1108 3 22 324 207 199 -1
1109 5 22 323 207 199 -1
1110 1 22 322 208 200 1106
1111 7 22 323 208 200 -1
1112 8 22 322 208 199 -1
1113 6 22 322 209 200 -1
1114 9 22 323 210 199 -1
1115 8 22 322 211 199 -1
1116 6 22 323 211 200 -1
1117 6 22 322 211 201 -1
1118 6 22 321 210 201 -1
1119 7 22 321 209 202 -1
1120 3 22 322 209 202 -1
1121 5 22 322 210 201 -1
1122 7 22 321 211 200 -1
1123 5 22 321 212 199 -1
1124 1 22 322 213 199 -1
1125 3 22 321 213 198 -1
1126 4 22 322 212 198 -1
1127 3 22 321 213 197 -1
1128 3 22 320 213 197 -1
1129 5 22 320 214 196 -1
1130 6 22 319 213 197 -1
1131 4 22 318 213 198 -1
1132 2 22 317 214 199 -1
1133 2 22 316 213 200 -1
1134 2 22 315 213 201 -1
1135 2 22 315 214 202 -1
1136 2 22 316 214 202 -1
1137 4 22 317 214 203 -1
1138 2 22 318 215 204 -1
1139 2 22 318 216 203 -1
1140 2 22 318 216 202 -1
1141 2 22 318 215 201 -1
1142 2 22 319 215 202 -1
1143 2 22 319 214 201 -1
1144 2 22 318 213 200 -1
1145 2 22 318 212 201 -1
1146 2 22 317 211 200 -1
1147 4 22 316 210 199 -1
1148 2 22 316 209 199 -1
1149 4 22 316 210 198 -1
1150 0 23 250 159 358 1151
1151 1 23 250 158 357 1150
1152 2 23 249 158 356 -1
1153 3 23 249 158 357 -1
1154 4 23 249 157 356 -1
1155 5 23 248 158 357 -1
1156 0 23 249 158 358 1160
1157 6 23 249 159 358 -1
1158 3 23 248 159 359 -1
1159 5 23 248 159 358 -1
1160 1 23 249 158 359 1156
1161 7 23 248 157 358 -1
1162 8 23 247 158 359 -1
1163 6 23 247 157 360 -1
1164 9 23 247 156 361 -1
1165 8 23 246 155 360 -1
1166 6 23 246 154 360 -1
1167 6 23 245 154 361 -1
1168 6 23 246 155 362 -1
1169 7 23 246 156 363 -1
1170 3 23 247 156 364 -1
1171 5 23 248 155 365 -1
1172 7 23 247 155 366 -1
1173 5 23 246 155 366 -1
1174 1 23 245 155 367 -1
1175 3 23 246 154 367 -1
1176 4 23 247 153 368 -1
1177 3 23 248 154 368 -1
1178 3 23 249 153 369 -1
1179 5 23 249 153 368 -1
1180 6 23 248 153 369 -1
1181 4 23 247 152 370 -1
1182 2 23 247 152 371 -1
1183 2 23 247 153 372 -1
1184 2 23 246 152 371 -1
1185 2 23 246 153 372 -1
1186 2 23 245 153 372 -1
1187 4 23 244 154 371 -1
1188 2 23 245 154 372 -1
1189 2 23 244 155 372 -1
1190 2 23 243 155 371 -1
1191 2 23 242 154 371 -1
1192 2 23 243 155 370 -1
1193 2 23 244 156 370 -1
1194 2 23 244 156 371 -1
1195 2 23 245 156 370 -1
1196 2 23 245 156 369 -1
1197 4 23 245 157 370 -1
1198 2 23 246 157 370 -1
1199 4 23 245 158 370 -1
1200 0 24 116 333 242 1201
1201 1 24 115 333 243 1200
1202 2 24 116 334 242 -1
1203 3 24 115 335 243 -1
1204 4 24 114 335 242 -1
1205 5 24 113 335 243 -1
1206 0 24 114 336 244 1210
1207 6 24 113 336 245 -1
1208 3 24 112 335 244 -1
1209 5 24 112 336 243 -1
1210 1 24 113 335 244 1206
1211 7 24 112 334 244 -1
1212 8 24 111 333 243 -1
1213 6 24 112 333 243 -1
1214 9 24 111 334 242 -1
1215 8 24 110 333 241 -1
1216 6 24 110 333 240 -1
1217 6 24 111 334 241 -1
1218 6 24 112 335 242 -1
1219 7 24 112 336 241 -1
1220 3 24 111 337 240 -1
1221 5 24 111 338 240 -1
1222 7 24 112 337 240 -1
1223 5 24 111 337 241 -1
1224 1 24 112 337 241 -1
1225 3 24 112 338 240 -1
1226 4 24 112 338 239 -1
1227 3 24 113 339 240 -1
1228 3 24 112 340 240 -1
1229 5 24 112 341 240 -1
1230 6 24 112 342 240 -1
1231 4 24 113 342 240 -1
1232 2 24 113 343 239 -1
1233 2 24 113 344 239 -1
1234 2 24 113 343 238 -1
1235 2 24 114 344 239 -1
1236 2 24 115 343 238 -1
1237 4 24 114 342 237 -1
1238 2 24 114 341 236 -1
1239 2 24 114 341 235 -1
1240 2 24 115 340 236 -1
1241 2 24 116 341 236 -1
1242 2 24 117 340 235 -1
1243 2 24 116 341 234 -1
1244 2 24 116 342 234 -1
1245 2 24 116 341 235 -1
1246 2 24 115 342 235 -1
1247 4 24 115 343 236 -1
1248 2 24 115 344 235 -1
1249 4 24 116 345 235 -1
1250 0 25 219 37 334 1251
1251 1 25 219 36 335 1250
1252 2 25 218 36 335 -1
1253 3 25 218 36 334 -1
1254 4 25 218 35 333 -1
1255 5 25 217 35 332 -1
1256 0 25 216 34 333 1260
1257 6 25 215 34 332 -1
1258 3 25 215 34 333 -1
1259 5 25 216 35 332 -1
1260 1 25 215 35 333 1256
1261 7 25 216 36 332 -1
1262 8 25 217 37 333 -1
1263 6 25 217 36 332 -1
1264 9 25 218 35 331 -1
1265 8 25 218 36 331 -1
1266 6 25 217 37 332 -1
1267 6 25 216 38 331 -1
1268 6 25 217 39 332 -1
1269 7 25 216 40 331 -1
1270 3 25 215 40 331 -1
1271 5 25 214 41 332 -1
1272 7 25 214 40 331 -1
1273 5 25 214 39 332 -1
1274 1 25 215 38 331 -1
1275 3 25 216 37 331 -1
1276 4 25 217 36 331 -1
1277 3 25 217 36 330 -1
1278 3 25 216 36 329 -1
1279 5 25 216 37 328 -1
1280 6 25 217 38 328 -1
1281 4 25 217 38 329 -1
1282 2 25 218 39 328 -1
1283 2 25 217 39 328 -1
1284 2 25 216 39 329 -1
1285 2 25 217 38 330 -1
1286 2 25 218 38 330 -1