LAMMPS Description

10000	atoms
19600	bonds
0	angles
0	dihedrals
0	impropers

6	atom types
1	bond types
0	angle types

0 500 xlo xhi
0 500 ylo yhi
0 500 zlo zhi

Masses

1	1.0
2	1.0
3	1.0
4	1.0
5	1.0
6	1.0

Atoms

0 0 0 0.0 192 189 82
1 0 1 0.0 193 188 83
2 0 2 0.0 194 189 82
3 0 3 0.0 194 189 81
4 0 4 0.0 194 190 80
5 0 5 0.0 193 191 80
6 0 0 0.0 192 192 80
7 0 6 0.0 192 193 81
8 0 3 0.0 193 192 81
9 0 5 0.0 194 192 81
10 0 1 0.0 193 193 82
11 0 7 0.0 193 194 83
12 0 8 0.0 192 194 82
13 0 6 0.0 193 194 82
14 0 9 0.0 194 195 81
15 0 8 0.0 193 196 81
16 0 6 0.0 193 195 81
17 0 6 0.0 194 196 80
18 0 6 0.0 193 197 80
19 0 7 0.0 194 197 79
20 0 3 0.0 194 197 78
21 0 5 0.0 194 196 77
22 0 7 0.0 194 196 78
23 0 5 0.0 194 195 77
24 0 1 0.0 193 194 78
25 0 3 0.0 193 194 79
26 0 4 0.0 194 193 79
27 0 3 0.0 193 192 78
28 0 3 0.0 194 191 77
29 0 5 0.0 193 191 77
30 0 6 0.0 194 192 76
31 0 4 0.0 195 191 77
32 0 2 0.0 196 192 76
33 0 2 0.0 197 192 76
34 0 2 0.0 198 192 77
35 0 2 0.0 199 192 76
36 0 2 0.0 198 191 77
37 0 4 0.0 199 190 77
38 0 2 0.0 200 191 76
39 0 2 0.0 199 192 77
40 0 2 0.0 200 193 77
41 0 2 0.0 201 193 76
42 0 2 0.0 201 194 77
43 0 2 0.0 200 195 77
44 0 2 0.0 200 196 76
45 0 2 0.0 201 196 75
46 0 2 0.0 201 195 76
47 0 4 0.0 202 194 75
48 0 2 0.0 201 195 74
49 0 4 0.0 202 194 73
50 1 0 0.0 346 124 68
51 1 1 0.0 347 123 69
52 1 2 0.0 346 124 70
53 1 3 0.0 346 123 71
54 1 4 0.0 347 124 71
55 1 5 0.0 348 124 70
56 1 0 0.0 349 123 70
57 1 6 0.0 350 122 71
58 1 3 0.0 349 122 71
59 1 5 0.0 349 121 72
60 1 1 0.0 349 121 71
61 1 7 0.0 348 120 70
62 1 8 0.0 347 120 70
63 1 6 0.0 348 120 69
64 1 9 0.0 349 120 70
65 1 8 0.0 350 121 69
66 1 6 0.0 350 122 69
67 1 6 0.0 350 121 70
68 1 6 0.0 351 121 69
69 1 7 0.0 350 120 70
70 1 3 0.0 349 121 70
71 1 5 0.0 349 120 69
72 1 7 0.0 348 119 68
73 1 5 0.0 347 120 69
74 1 1 0.0 346 119 70
75 1 3 0.0 347 118 71
76 1 4 0.0 346 117 71
77 1 3 0.0 347 116 71
78 1 3 0.0 348 116 71
79 1 5 0.0 349 116 70
80 1 6 0.0 349 117 70
81 1 4 0.0 348 116 70
82 1 2 0.0 347 117 70
83 1 2 0.0 348 116 69
84 1 2 0.0 347 116 68
85 1 2 0.0 346 116 68
86 1 2 0.0 347 117 69
87 1 4 0.0 347 118 68
88 1 2 0.0 348 118 69
89 1 2 0.0 349 118 68
90 1 2 0.0 350 118 67
91 1 2 0.0 351 117 67
92 1 2 0.0 350 117 68
93 1 2 0.0 351 118 68
94 1 2 0.0 351 118 67
95 1 2 0.0 350 119 66
96 1 2 0.0 349 120 67
97 1 4 0.0 349 119 68
98 1 2 0.0 350 120 67
99 1 4 0.0 349 119 67
100 2 0 0.0 467 263 58
101 2 1 0.0 468 263 58
102 2 2 0.0 467 263 59
103 2 3 0.0 467 262 60
104 2 4 0.0 468 263 60
105 2 5 0.0 467 262 59
106 2 0 0.0 466 262 58
107 2 6 0.0 465 263 58
108 2 3 0.0 466 264 58
109 2 5 0.0 467 263 57
110 2 1 0.0 467 264 57
111 2 7 0.0 467 264 56
112 2 8 0.0 468 265 56
113 2 6 0.0 467 264 55
114 2 9 0.0 468 263 56
115 2 8 0.0 468 262 55
116 2 6 0.0 469 262 56
117 2 6 0.0 468 262 57
118 2 6 0.0 469 262 58
119 2 7 0.0 468 262 59
120 2 3 0.0 467 261 59
121 2 5 0.0 468 262 58
122 2 7 0.0 469 261 58
123 2 5 0.0 470 260 58
124 2 1 0.0 471 261 59
125 2 3 0.0 472 261 58
126 2 4 0.0 471 261 58
127 2 3 0.0 470 262 58
128 2 3 0.0 471 262 57
129 2 5 0.0 472 263 58
130 2 6 0.0 472 262 57
131 2 4 0.0 472 261 56
132 2 2 0.0 473 260 55
133 2 2 0.0 472 261 55
134 2 2 0.0 471 262 55
135 2 2 0.0 472 262 54
136 2 2 0.0 471 263 55
137 2 4 0.0 472 264 56
138 2 2 0.0 471 265 55
139 2 2 0.0 471 266 54
140 2 2 0.0 471 265 54
141 2 2 0.0 471 266 55
142 2 2 0.0 472 267 54
143 2 2 0.0 471 266 53
144 2 2 0.0 470 265 53
145 2 2 0.0 470 264 54
146 2 2 0.0 470 265 54
147 2 4 0.0 469 265 54
148 2 2 0.0 469 266 53
149 2 4 0.0 469 266 54
150 3 0 0.0 381 369 456
151 3 1 0.0 382 368 457
152 3 2 0.0 381 368 456
153 3 3 0.0 380 369 455
154 3 4 0.0 381 368 455
155 3 5 0.0 380 369 454
156 3 0 0.0 379 368 454
157 3 6 0.0 378 367 454
158 3 3 0.0 377 367 455
159 3 5 0.0 378 367 456
160 3 1 0.0 379 367 456
161 3 7 0.0 378 367 457
162 3 8 0.0 377 367 458
163 3 6 0.0 376 368 459
164 3 9 0.0 377 368 459
165 3 8 0.0 378 368 458
166 3 6 0.0 378 367 458
167 3 6 0.0 378 366 459
168 3 6 0.0 379 365 458
169 3 7 0.0 380 365 459
170 3 3 0.0 381 364 458
171 3 5 0.0 381 363 459
172 3 7 0.0 380 363 458
173 3 5 0.0 379 364 458
174 3 1 0.0 380 363 457
175 3 3 0.0 381 362 457
176 3 4 0.0 382 363 457
177 3 3 0.0 382 363 456
178 3 3 0.0 383 362 457
179 3 5 0.0 384 363 456
180 3 6 0.0 385 363 456
181 3 4 0.0 384 364 456
182 3 2 0.0 383 363 456
183 3 2 0.0 382 362 457
184 3 2 0.0 383 361 458
185 3 2 0.0 383 362 458
186 3 2 0.0 384 362 459
187 3 4 0.0 384 361 460
188 3 2 0.0 384 362 461
189 3 2 0.0 385 361 462
190 3 2 0.0 386 360 462
191 3 2 0.0 386 360 461
192 3 2 0.0 387 359 461
193 3 2 0.0 388 358 462
194 3 2 0.0 388 357 462
195 3 2 0.0 388 358 461
196 3 2 0.0 389 359 461
197 3 4 0.0 389 358 461
198 3 2 0.0 389 359 462
199 3 4 0.0 389 360 463
200 4 0 0.0 181 114 240
201 4 1 0.0 180 113 241
202 4 2 0.0 179 112 242
203 4 3 0.0 180 113 242
204 4 4 0.0 180 114 241
205 4 5 0.0 181 114 242
206 4 0 0.0 182 115 241
207 4 6 0.0 183 116 242
208 4 3 0.0 184 115 243
209 4 5 0.0 185 114 242
210 4 1 0.0 184 115 241
211 4 7 0.0 183 116 240
212 4 8 0.0 183 115 240
213 4 6 0.0 184 115 240
214 4 9 0.0 183 114 239
215 4 8 0.0 182 114 240
216 4 6 0.0 182 115 240
217 4 6 0.0 182 115 239
218 4 6 0.0 182 116 239
219 4 7 0.0 181 117 240
220 4 3 0.0 180 118 241
221 4 5 0.0 180 117 240
222 4 7 0.0 180 118 239
223 4 5 0.0 179 119 238
224 4 1 0.0 180 118 238
225 4 3 0.0 181 118 238
226 4 4 0.0 182 119 237
227 4 3 0.0 182 119 238
228 4 3 0.0 183 120 239
229 4 5 0.0 183 119 240
230 4 6 0.0 184 119 241
231 4 4 0.0 185 120 240
232 4 2 0.0 184 121 239
233 4 2 0.0 185 122 240
234 4 2 0.0 185 123 240
235 4 2 0.0 186 124 240
236 4 2 0.0 185 124 241
237 4 4 0.0 185 124 242
238 4 2 0.0 185 123 241
239 4 2 0.0 184 122 242
240 4 2 0.0 183 123 243
241 4 2 0.0 182 122 244
242 4 2 0.0 182 123 245
243 4 2 0.0 181 124 245
244 4 2 0.0 181 124 244
245 4 2 0.0 182 124 243
246 4 2 0.0 182 125 243
247 4 4 0.0 182 125 242
248 4 2 0.0 182 124 242
249 4 4 0.0 183 123 242
250 5 0 0.0 233 411 274
251 5 1 0.0 233 410 274
252 5 2 0.0 232 409 274
253 5 3 0.0 232 410 273
254 5 4 0.0 231 409 273
255 5 5 0.0 232 408 273
256 5 0 0.0 233 409 273
257 5 6 0.0 233 409 274
258 5 3 0.0 234 408 275
259 5 5 0.0 234 409 276
260 5 1 0.0 233 408 276
261 5 7 0.0 232 407 277
262 5 8 0.0 232 408 277
263 5 6 0.0 231 407 278
264 5 9 0.0 230 406 279
265 5 8 0.0 230 405 279
266 5 6 0.0 231 405 279
267 5 6 0.0 232 406 279
268 5 6 0.0 232 406 280
269 5 7 0.0 232 407 281
270 5 3 0.0 231 408 281
271 5 5 0.0 230 408 280
272 5 7 0.0 231 407 279
273 5 5 0.0 230 408 279
274 5 1 0.0 229 409 280
275 5 3 0.0 228 409 279
276 5 4 0.0 227 408 280
277 5 3 0.0 226 409 279
278 5 3 0.0 227 409 278
279 5 5 0.0 228 410 277
280 5 6 0.0 229 411 276
281 5 4 0.0 228 410 275
282 5 2 0.0 227 409 276
283 5 2 0.0 228 409 276
284 5 2 0.0 227 409 277
285 5 2 0.0 226 410 278
286 5 2 0.0 225 409 279
287 5 4 0.0 225 410 279
288 5 2 0.0 226 411 278
289 5 2 0.0 225 410 277
290 5 2 0.0 226 411 276
291 5 2 0.0 225 410 276
292 5 2 0.0 224 409 277
293 5 2 0.0 223 408 277
294 5 2 0.0 223 408 276
295 5 2 0.0 222 408 275
296 5 2 0.0 221 409 274
297 5 4 0.0 220 409 274
298 5 2 0.0 220 408 273
299 5 4 0.0 219 407 272
300 6 0 0.0 378 347 99
301 6 1 0.0 377 347 99
302 6 2 0.0 377 348 100
303 6 3 0.0 377 349 99
304 6 4 0.0 376 350 99
305 6 5 0.0 375 351 98
306 6 0 0.0 375 350 97
307 6 6 0.0 376 351 97
308 6 3 0.0 376 350 98
309 6 5 0.0 375 350 98
310 6 1 0.0 376 351 98
311 6 7 0.0 377 351 98
312 6 8 0.0 378 352 98
313 6 6 0.0 377 351 97
314 6 9 0.0 378 352 97
315 6 8 0.0 378 351 98
316 6 6 0.0 377 352 98
317 6 6 0.0 378 352 99
318 6 6 0.0 378 353 98
319 6 7 0.0 379 354 99
320 6 3 0.0 379 355 99
321 6 5 0.0 380 355 98
322 6 7 0.0 380 354 99
323 6 5 0.0 381 354 100
324 6 1 0.0 381 355 100
325 6 3 0.0 380 356 99
326 6 4 0.0 381 356 99
327 6 3 0.0 380 357 100
328 6 3 0.0 381 358 101
329 6 5 0.0 381 357 101
330 6 6 0.0 381 356 102
331 6 4 0.0 381 356 101
332 6 2 0.0 382 356 101
333 6 2 0.0 383 357 101
334 6 2 0.0 383 357 100
335 6 2 0.0 384 357 101
336 6 2 0.0 384 358 102
337 6 4 0.0 383 358 102
338 6 2 0.0 384 357 103
339 6 2 0.0 384 357 102
340 6 2 0.0 384 356 102
341 6 2 0.0 385 356 102
342 6 2 0.0 384 355 103
343 6 2 0.0 384 354 102
344 6 2 0.0 383 354 102
345 6 2 0.0 383 355 103
346 6 2 0.0 383 354 104
347 6 4 0.0 382 354 104
348 6 2 0.0 383 354 105
349 6 4 0.0 383 353 105
350 7 0 0.0 227 47 295
351 7 1 0.0 227 48 294
352 7 2 0.0 226 49 295
353 7 3 0.0 225 48 294
354 7 4 0.0 224 48 293
355 7 5 0.0 225 49 294
356 7 0 0.0 226 49 293
357 7 6 0.0 227 49 292
358 7 3 0.0 226 49 291
359 7 5 0.0 225 50 292
360 7 1 0.0 226 49 292
361 7 7 0.0 227 50 293
362 7 8 0.0 228 49 293
363 7 6 0.0 229 48 294
364 7 9 0.0 230 47 293
365 7 8 0.0 231 46 294
366 7 6 0.0 231 47 293
367 7 6 0.0 232 47 293
368 7 6 0.0 232 46 294
369 7 7 0.0 232 45 293
370 7 3 0.0 232 44 293
371 7 5 0.0 231 45 292
372 7 7 0.0 232 46 292
373 7 5 0.0 233 47 293
374 7 1 0.0 233 48 294
375 7 3 0.0 233 49 295
376 7 4 0.0 232 50 294
377 7 3 0.0 233 50 294
378 7 3 0.0 233 51 294
379 7 5 0.0 234 51 293
380 7 6 0.0 235 50 292
381 7 4 0.0 235 49 291
382 7 2 0.0 234 49 290
383 7 2 0.0 234 48 289
384 7 2 0.0 233 48 290
385 7 2 0.0 232 47 289
386 7 2 0.0 231 47 290
387 7 4 0.0 230 47 290
388 7 2 0.0 231 48 291
389 7 2 0.0 231 49 291
390 7 2 0.0 231 49 292
391 7 2 0.0 232 49 291
392 7 2 0.0 231 48 292
393 7 2 0.0 230 48 292
394 7 2 0.0 230 48 293
395 7 2 0.0 231 48 293
396 7 2 0.0 232 47 294
397 7 4 0.0 231 48 295
398 7 2 0.0 232 48 296
399 7 4 0.0 232 47 296
400 8 0 0.0 344 127 384
401 8 1 0.0 344 126 384
402 8 2 0.0 343 126 384
403 8 3 0.0 342 126 385
404 8 4 0.0 343 125 384
405 8 5 0.0 343 126 383
406 8 0 0.0 342 126 382
407 8 6 0.0 343 125 381
408 8 3 0.0 344 124 381
409 8 5 0.0 344 125 382
410 8 1 0.0 344 124 383
411 8 7 0.0 343 125 382
412 8 8 0.0 344 124 382
413 8 6 0.0 344 123 382
414 8 9 0.0 344 122 383
415 8 8 0.0 345 123 382
416 8 6 0.0 345 124 381
417 8 6 0.0 346 123 380
418 8 6 0.0 347 122 380
419 8 7 0.0 348 122 381
420 8 3 0.0 348 121 380
421 8 5 0.0 347 120 381
422 8 7 0.0 347 119 382
423 8 5 0.0 346 120 382
424 8 1 0.0 345 120 382
425 8 3 0.0 344 121 383
426 8 4 0.0 345 121 384
427 8 3 0.0 344 121 385
428 8 3 0.0 344 120 386
429 8 5 0.0 343 121 387
430 8 6 0.0 343 121 386
431 8 4 0.0 343 122 386
432 8 2 0.0 343 121 385
433 8 2 0.0 342 121 385
434 8 2 0.0 341 120 386
435 8 2 0.0 341 120 385
436 8 2 0.0 341 119 386
437 8 4 0.0 340 120 387
438 8 2 0.0 340 119 386
439 8 2 0.0 340 120 386
440 8 2 0.0 341 119 387
441 8 2 0.0 340 119 387
442 8 2 0.0 339 120 388
443 8 2 0.0 338 119 387
444 8 2 0.0 338 120 387
445 8 2 0.0 338 121 387
446 8 2 0.0 339 120 387
447 8 4 0.0 339 121 388
448 8 2 0.0 339 121 389
449 8 4 0.0 340 121 388
450 9 0 0.0 371 29 397
451 9 1 0.0 372 29 397
452 9 2 0.0 372 30 398
453 9 3 0.0 373 29 398
454 9 4 0.0 373 30 399
455 9 5 0.0 374 30 398
456 9 0 0.0 375 29 398
457 9 6 0.0 374 28 398
458 9 3 0.0 373 28 397
459 9 5 0.0 372 28 397
460 9 1 0.0 372 28 398
461 9 7 0.0 372 27 397
462 9 8 0.0 371 28 396
463 9 6 0.0 372 29 395
464 9 9 0.0 373 29 394
465 9 8 0.0 374 28 393
466 9 6 0.0 374 28 392
467 9 6 0.0 373 29 393
468 9 6 0.0 372 28 392
469 9 7 0.0 373 28 392
470 9 3 0.0 373 27 393
471 9 5 0.0 374 26 394
472 9 7 0.0 375 26 393
473 9 5 0.0 374 25 393
474 9 1 0.0 374 26 392
475 9 3 0.0 373 27 392
476 9 4 0.0 372 27 391
477 9 3 0.0 372 27 390
478 9 3 0.0 371 28 389
479 9 5 0.0 371 29 388
480 9 6 0.0 370 29 388
481 9 4 0.0 370 28 389
482 9 2 0.0 369 27 389
483 9 2 0.0 368 27 389
484 9 2 0.0 369 26 389
485 9 2 0.0 368 25 388
486 9 2 0.0 369 25 389
487 9 4 0.0 368 24 389
488 9 2 0.0 368 24 390
489 9 2 0.0 369 23 390
490 9 2 0.0 368 22 389
491 9 2 0.0 369 22 389
492 9 2 0.0 370 21 390
493 9 2 0.0 369 20 390
494 9 2 0.0 370 20 390
495 9 2 0.0 369 21 391
496 9 2 0.0 369 22 391
497 9 4 0.0 368 23 392
498 9 2 0.0 367 23 391
499 9 4 0.0 366 23 390
500 10 0 0.0 134 239 145
501 10 1 0.0 135 238 144
502 10 2 0.0 136 237 144
503 10 3 0.0 137 236 145
504 10 4 0.0 138 237 144
505 10 5 0.0 139 238 145
506 10 0 0.0 139 239 144
507 10 6 0.0 139 238 144
508 10 3 0.0 139 237 145
509 10 5 0.0 140 236 146
510 10 1 0.0 140 237 146
511 10 7 0.0 141 237 146
512 10 8 0.0 142 238 147
513 10 6 0.0 141 239 148
514 10 9 0.0 141 240 148
515 10 8 0.0 141 240 149
516 10 6 0.0 141 241 150
517 10 6 0.0 140 240 149
518 10 6 0.0 141 239 149
519 10 7 0.0 142 238 149
520 10 3 0.0 141 237 149
521 10 5 0.0 141 236 150
522 10 7 0.0 140 237 149
523 10 5 0.0 141 237 150
524 10 1 0.0 142 238 151
525 10 3 0.0 143 237 152
526 10 4 0.0 142 236 151
527 10 3 0.0 143 235 152
528 10 3 0.0 142 234 153
529 10 5 0.0 142 234 154
530 10 6 0.0 143 235 155
531 10 4 0.0 143 235 156
532 10 2 0.0 143 236 155
533 10 2 0.0 143 237 154
534 10 2 0.0 144 238 153
535 10 2 0.0 145 237 153
536 10 2 0.0 145 238 153
537 10 4 0.0 144 239 153
538 10 2 0.0 143 239 152
539 10 2 0.0 142 238 152
540 10 2 0.0 141 237 152
541 10 2 0.0 142 237 153
542 10 2 0.0 142 236 154
543 10 2 0.0 143 237 155
544 10 2 0.0 143 238 156
545 10 2 0.0 144 237 157
546 10 2 0.0 143 237 157
547 10 4 0.0 144 237 156
548 10 2 0.0 145 236 156
549 10 4 0.0 145 235 157
550 11 0 0.0 484 78 48
551 11 1 0.0 483 77 48
552 11 2 0.0 484 76 48
553 11 3 0.0 485 76 48
554 11 4 0.0 485 77 48
555 11 5 0.0 484 78 49
556 11 0 0.0 483 79 49
557 11 6 0.0 482 80 48
558 11 3 0.0 482 80 47
559 11 5 0.0 481 81 48
560 11 1 0.0 480 80 48
561 11 7 0.0 480 80 49
562 11 8 0.0 479 80 50
563 11 6 0.0 480 81 50
564 11 9 0.0 480 81 49
565 11 8 0.0 481 81 49
566 11 6 0.0 482 81 50
567 11 6 0.0 481 81 50
568 11 6 0.0 480 82 51
569 11 7 0.0 479 83 50
570 11 3 0.0 480 83 51
571 11 5 0.0 479 82 50
572 11 7 0.0 479 81 51
573 11 5 0.0 478 82 51
574 11 1 0.0 478 82 50
575 11 3 0.0 478 81 50
576 11 4 0.0 479 81 49
577 11 3 0.0 480 82 49
578 11 3 0.0 479 83 49
579 11 5 0.0 479 84 49
580 11 6 0.0 478 85 49
581 11 4 0.0 478 85 50
582 11 2 0.0 478 86 51
583 11 2 0.0 478 87 52
584 11 2 0.0 477 87 52
585 11 2 0.0 476 86 52
586 11 2 0.0 477 87 51
587 11 4 0.0 476 88 52
588 11 2 0.0 476 87 53
589 11 2 0.0 476 88 53
590 11 2 0.0 477 87 53
591 11 2 0.0 477 88 54
592 11 2 0.0 476 89 54
593 11 2 0.0 475 88 53
594 11 2 0.0 475 87 52
595 11 2 0.0 476 87 52
596 11 2 0.0 477 86 53
597 11 4 0.0 478 87 53
598 11 2 0.0 479 86 54
599 11 4 0.0 479 86 55
600 12 0 0.0 149 368 463
601 12 1 0.0 148 367 464
602 12 2 0.0 149 366 463
603 12 3 0.0 148 365 464
604 12 4 0.0 149 364 464
605 12 5 0.0 149 365 463
606 12 0 0.0 149 364 463
607 12 6 0.0 150 364 463
608 12 3 0.0 151 365 463
609 12 5 0.0 150 364 462
610 12 1 0.0 151 363 462
611 12 7 0.0 151 364 463
612 12 8 0.0 150 363 462
613 12 6 0.0 151 362 462
614 12 9 0.0 150 363 461
615 12 8 0.0 150 362 461
616 12 6 0.0 149 361 460
617 12 6 0.0 149 360 460
618 12 6 0.0 149 360 459
619 12 7 0.0 148 361 458
620 12 3 0.0 147 361 459
621 12 5 0.0 148 362 460
622 12 7 0.0 149 363 459
623 12 5 0.0 150 363 459
624 12 1 0.0 150 362 458
625 12 3 0.0 151 362 458
626 12 4 0.0 150 362 457
627 12 3 0.0 151 363 458
628 12 3 0.0 151 363 457
629 12 5 0.0 151 363 456
630 12 6 0.0 151 362 455
631 12 4 0.0 152 361 454
632 12 2 0.0 151 361 453
633 12 2 0.0 152 361 453
634 12 2 0.0 151 362 453
635 12 2 0.0 151 362 452
636 12 2 0.0 150 361 451
637 12 4 0.0 149 361 451
638 12 2 0.0 150 361 450
639 12 2 0.0 149 360 450
640 12 2 0.0 148 360 449
641 12 2 0.0 149 359 448
642 12 2 0.0 150 360 447
643 12 2 0.0 151 360 448
644 12 2 0.0 152 360 447
645 12 2 0.0 153 360 448
646 12 2 0.0 152 360 448
647 12 4 0.0 153 361 448
648 12 2 0.0 154 360 447
649 12 4 0.0 155 361 448
650 13 0 0.0 128 108 356
651 13 1 0.0 127 108 357
652 13 2 0.0 126 108 357
653 13 3 0.0 127 107 358
654 13 4 0.0 126 107 357
655 13 5 0.0 127 108 356
656 13 0 0.0 128 108 357
657 13 6 0.0 129 108 358
658 13 3 0.0 129 108 357
659 13 5 0.0 130 108 356
660 13 1 0.0 130 108 355
661 13 7 0.0 131 107 356
662 13 8 0.0 132 106 355
663 13 6 0.0 131 105 356
664 13 9 0.0 130 106 356
665 13 8 0.0 129 107 356
666 13 6 0.0 129 107 357
667 13 6 0.0 129 106 358
668 13 6 0.0 128 106 357
669 13 7 0.0 127 105 357
670 13 3 0.0 128 105 356
671 13 5 0.0 129 106 355
672 13 7 0.0 129 105 356
673 13 5 0.0 129 105 355
674 13 1 0.0 128 106 355
675 13 3 0.0 127 107 356
676 13 4 0.0 128 107 355
677 13 3 0.0 127 108 355
678 13 3 0.0 128 109 354
679 13 5 0.0 127 109 355
680 13 6 0.0 126 110 354
681 13 4 0.0 125 110 353
682 13 2 0.0 124 111 353
683 13 2 0.0 124 112 353
684 13 2 0.0 123 113 354
685 13 2 0.0 124 113 353
686 13 2 0.0 123 114 353
687 13 4 0.0 123 113 352
688 13 2 0.0 124 113 351
689 13 2 0.0 125 112 350
690 13 2 0.0 126 111 351
691 13 2 0.0 125 110 351
692 13 2 0.0 126 109 350
693 13 2 0.0 127 110 349
694 13 2 0.0 127 109 348
695 13 2 0.0 127 108 349
696 13 2 0.0 128 107 348
697 13 4 0.0 127 107 347
698 13 2 0.0 128 107 346
699 13 4 0.0 129 108 345
700 14 0 0.0 35 46 158
701 14 1 0.0 36 45 158
702 14 2 0.0 37 46 158
703 14 3 0.0 38 46 158
704 14 4 0.0 39 45 157
705 14 5 0.0 38 45 156
706 14 0 0.0 37 46 157
707 14 6 0.0 37 47 158
708 14 3 0.0 36 48 157
709 14 5 0.0 35 48 156
710 14 1 0.0 35 48 155
711 14 7 0.0 34 48 154
712 14 8 0.0 33 48 155
713 14 6 0.0 32 48 155
714 14 9 0.0 32 49 154
715 14 8 0.0 31 49 153
716 14 6 0.0 30 49 154
717 14 6 0.0 30 48 154
718 14 6 0.0 29 47 153
719 14 7 0.0 30 48 153
720 14 3 0.0 31 47 154
721 14 5 0.0 30 48 155
722 14 7 0.0 29 49 155
723 14 5 0.0 29 50 154
724 14 1 0.0 29 49 154
725 14 3 0.0 29 49 153
726 14 4 0.0 30 50 154
727 14 3 0.0 30 50 153
728 14 3 0.0 31 51 153
729 14 5 0.0 30 51 153
730 14 6 0.0 30 51 154
731 14 4 0.0 31 52 154
732 14 2 0.0 31 53 155
733 14 2 0.0 30 52 155
734 14 2 0.0 31 51 156
735 14 2 0.0 30 51 155
736 14 2 0.0 30 50 156
737 14 4 0.0 31 51 157
738 14 2 0.0 30 50 157
739 14 2 0.0 31 50 157
740 14 2 0.0 32 49 156
741 14 2 0.0 32 50 155
742 14 2 0.0 31 50 155
743 14 2 0.0 31 49 155
744 14 2 0.0 32 50 156
745 14 2 0.0 31 49 157
746 14 2 0.0 31 50 158
747 14 4 0.0 31 49 159
748 14 2 0.0 30 48 160
749 14 4 0.0 30 47 159
750 15 0 0.0 383 123 171
751 15 1 0.0 382 122 172
752 15 2 0.0 382 123 173
753 15 3 0.0 382 123 174
754 15 4 0.0 383 123 175
755 15 5 0.0 382 123 176
756 15 0 0.0 381 122 177
757 15 6 0.0 381 122 176
758 15 3 0.0 381 123 176
759 15 5 0.0 380 123 176
760 15 1 0.0 381 123 175
761 15 7 0.0 380 124 175
762 15 8 0.0 381 125 175
763 15 6 0.0 381 124 176
764 15 9 0.0 381 124 177
765 15 8 0.0 381 125 176
766 15 6 0.0 381 125 177
767 15 6 0.0 381 126 177
768 15 6 0.0 380 126 177
769 15 7 0.0 381 125 178
770 15 3 0.0 382 124 179
771 15 5 0.0 383 123 179
772 15 7 0.0 382 124 180
773 15 5 0.0 381 125 181
774 15 1 0.0 382 125 182
775 15 3 0.0 381 124 181
776 15 4 0.0 380 125 180
777 15 3 0.0 381 126 181
778 15 3 0.0 380 126 182
779 15 5 0.0 380 126 181
780 15 6 0.0 380 125 181
781 15 4 0.0 379 125 180
782 15 2 0.0 378 125 181
783 15 2 0.0 377 125 182
784 15 2 0.0 376 126 181
785 15 2 0.0 377 125 181
786 15 2 0.0 376 124 180
787 15 4 0.0 377 124 179
788 15 2 0.0 377 125 180
789 15 2 0.0 378 125 180
790 15 2 0.0 377 126 181
791 15 2 0.0 378 125 182
792 15 2 0.0 379 124 181
793 15 2 0.0 380 124 180
794 15 2 0.0 381 124 179
795 15 2 0.0 380 125 178
796 15 2 0.0 379 126 177
797 15 4 0.0 379 126 176
798 15 2 0.0 378 126 177
799 15 4 0.0 379 126 178
800 16 0 0.0 395 395 37
801 16 1 0.0 394 395 37
802 16 2 0.0 394 394 36
803 16 3 0.0 394 395 35
804 16 4 0.0 395 394 36
805 16 5 0.0 394 393 35
806 16 0 0.0 393 392 34
807 16 6 0.0 392 393 35
808 16 3 0.0 392 393 34
809 16 5 0.0 391 393 34
810 16 1 0.0 391 393 33
811 16 7 0.0 392 394 33
812 16 8 0.0 391 394 33
813 16 6 0.0 391 395 33
814 16 9 0.0 392 396 34
815 16 8 0.0 392 395 35
816 16 6 0.0 393 394 34
817 16 6 0.0 394 394 33
818 16 6 0.0 394 395 33
819 16 7 0.0 395 395 34
820 16 3 0.0 396 396 35
821 16 5 0.0 397 396 35
822 16 7 0.0 396 397 36
823 16 5 0.0 396 397 35
824 16 1 0.0 395 396 34
825 16 3 0.0 394 397 34
826 16 4 0.0 395 398 35
827 16 3 0.0 395 398 34
828 16 3 0.0 395 398 33
829 16 5 0.0 394 398 34
830 16 6 0.0 393 397 35
831 16 4 0.0 392 396 35
832 16 2 0.0 393 395 35
833 16 2 0.0 392 395 34
834 16 2 0.0 392 396 33
835 16 2 0.0 393 397 34
836 16 2 0.0 393 396 35
837 16 4 0.0 394 397 35
838 16 2 0.0 394 396 36
839 16 2 0.0 394 396 37
840 16 2 0.0 395 397 36
841 16 2 0.0 395 398 36
842 16 2 0.0 395 399 37
843 16 2 0.0 395 400 36
844 16 2 0.0 395 400 35
845 16 2 0.0 396 399 35
846 16 2 0.0 396 399 36
847 16 4 0.0 397 399 37
848 16 2 0.0 397 398 36
849 16 4 0.0 396 398 35
850 17 0 0.0 430 173 107
851 17 1 0.0 431 172 107
852 17 2 0.0 432 172 106
853 17 3 0.0 432 171 105
854 17 4 0.0 432 171 104
855 17 5 0.0 433 170 103
856 17 0 0.0 433 171 103
857 17 6 0.0 432 172 102
858 17 3 0.0 431 171 102
859 17 5 0.0 432 171 101
860 17 1 0.0 433 172 101
861 17 7 0.0 433 171 102
862 17 8 0.0 434 172 101
863 17 6 0.0 434 171 101
864 17 9 0.0 434 171 102
865 17 8 0.0 434 170 103
866 17 6 0.0 433 170 102
867 17 6 0.0 433 169 103
868 17 6 0.0 434 168 104
869 17 7 0.0 434 169 105
870 17 3 0.0 433 170 105
871 17 5 0.0 432 169 106
872 17 7 0.0 433 168 106
873 17 5 0.0 434 169 107
874 17 1 0.0 433 170 108
875 17 3 0.0 433 171 108
876 17 4 0.0 433 172 107
877 17 3 0.0 434 172 106
878 17 3 0.0 435 171 106
879 17 5 0.0 436 171 105
880 17 6 0.0 435 172 105
881 17 4 0.0 436 173 106
882 17 2 0.0 435 174 105
883 17 2 0.0 435 173 106
884 17 2 0.0 435 174 106
885 17 2 0.0 436 173 107
886 17 2 0.0 435 172 108
887 17 4 0.0 436 173 108
888 17 2 0.0 435 173 107
889 17 2 0.0 435 172 106
890 17 2 0.0 434 171 106
891 17 2 0.0 435 171 107
892 17 2 0.0 436 172 108
893 17 2 0.0 437 172 109
894 17 2 0.0 437 171 108
895 17 2 0.0 438 172 109
896 17 2 0.0 437 171 109
897 17 4 0.0 436 170 109
898 17 2 0.0 436 170 108
899 17 4 0.0 437 169 108
900 18 0 0.0 18 225 472
901 18 1 0.0 18 225 471
902 18 2 0.0 18 224 472
903 18 3 0.0 18 223 473
904 18 4 0.0 19 224 474
905 18 5 0.0 20 225 474
906 18 0 0.0 21 225 473
907 18 6 0.0 20 225 473
908 18 3 0.0 20 226 472
909 18 5 0.0 21 227 471
910 18 1 0.0 20 228 472
911 18 7 0.0 19 227 473
912 18 8 0.0 18 226 473
913 18 6 0.0 17 227 473
914 18 9 0.0 18 227 473
915 18 8 0.0 18 226 472
916 18 6 0.0 19 226 473
917 18 6 0.0 20 227 473
918 18 6 0.0 21 226 474
919 18 7 0.0 22 225 475
920 18 3 0.0 23 225 476
921 18 5 0.0 22 225 477
922 18 7 0.0 21 224 478
923 18 5 0.0 20 225 479
924 18 1 0.0 21 225 478
925 18 3 0.0 21 224 477
926 18 4 0.0 21 225 476
927 18 3 0.0 20 224 476
928 18 3 0.0 21 223 476
929 18 5 0.0 21 222 477
930 18 6 0.0 20 222 478
931 18 4 0.0 19 221 478
932 18 2 0.0 19 220 478
933 18 2 0.0 20 221 479
934 18 2 0.0 21 220 479
935 18 2 0.0 20 219 479
936 18 2 0.0 21 220 478
937 18 4 0.0 21 219 479
938 18 2 0.0 22 219 479
939 18 2 0.0 23 218 479
940 18 2 0.0 23 218 478
941 18 2 0.0 23 217 479
942 18 2 0.0 24 216 480
943 18 2 0.0 24 216 479
944 18 2 0.0 23 215 478
945 18 2 0.0 23 216 478
946 18 2 0.0 24 217 478
947 18 4 0.0 25 216 478
948 18 2 0.0 26 215 477
949 18 4 0.0 25 214 477
950 19 0 0.0 194 198 421
951 19 1 0.0 194 199 422
952 19 2 0.0 193 198 421
953 19 3 0.0 192 198 420
954 19 4 0.0 191 197 421
955 19 5 0.0 191 196 420
956 19 0 0.0 192 196 419
957 19 6 0.0 193 197 419
958 19 3 0.0 193 196 419
959 19 5 0.0 194 197 418
960 19 1 0.0 194 198 417
961 19 7 0.0 194 199 417
962 19 8 0.0 193 199 417
963 19 6 0.0 192 200 418
964 19 9 0.0 192 201 419
965 19 8 0.0 192 201 418
966 19 6 0.0 191 200 418
967 19 6 0.0 192 199 419
968 19 6 0.0 191 199 420
969 19 7 0.0 190 198 421
970 19 3 0.0 189 198 422
971 19 5 0.0 189 199 421
972 19 7 0.0 188 198 421
973 19 5 0.0 188 199 420
974 19 1 0.0 187 199 421
975 19 3 0.0 187 200 420
976 19 4 0.0 186 201 420
977 19 3 0.0 185 202 420
978 19 3 0.0 186 202 419
979 19 5 0.0 187 201 418
980 19 6 0.0 186 200 418
981 19 4 0.0 186 200 417
982 19 2 0.0 187 201 416
983 19 2 0.0 188 200 415
984 19 2 0.0 189 201 415
985 19 2 0.0 188 201 415
986 19 2 0.0 188 202 416
987 19 4 0.0 189 202 416
988 19 2 0.0 190 203 417
989 19 2 0.0 189 203 418
990 19 2 0.0 190 202 418
991 19 2 0.0 189 201 419
992 19 2 0.0 188 200 420
993 19 2 0.0 188 201 419
994 19 2 0.0 187 201 420
995 19 2 0.0 187 200 419
996 19 2 0.0 188 201 418
997 19 4 0.0 189 200 418
998 19 2 0.0 189 201 417
999 19 4 0.0 188 201 417
1000 20 0 0.0 76 209 362
1001 20 1 0.0 76 209 361
1002 20 2 0.0 76 210 362
1003 20 3 0.0 76 211 361
1004 20 4 0.0 77 210 360
1005 20 5 0.0 76 209 359
1006 20 0 0.0 75 210 359
1007 20 6 0.0 75 209 360
1008 20 3 0.0 75 208 359
1009 20 5 0.0 74 208 359
1010 20 1 0.0 74 209 359
1011 20 7 0.0 75 209 358
1012 20 8 0.0 75 208 357
1013 20 6 0.0 74 209 357
1014 20 9 0.0 74 209 356
1015 20 8 0.0 75 210 356
1016 20 6 0.0 75 209 356
1017 20 6 0.0 76 209 357
1018 20 6 0.0 76 208 356
1019 20 7 0.0 77 208 357
1020 20 3 0.0 77 207 358
1021 20 5 0.0 78 206 357
1022 20 7 0.0 79 207 357
1023 20 5 0.0 80 208 356
1024 20 1 0.0 79 209 355
1025 20 3 0.0 79 208 355
1026 20 4 0.0 78 207 356
1027 20 3 0.0 77 208 355
1028 20 3 0.0 77 209 356
1029 20 5 0.0 77 210 355
1030 20 6 0.0 78 211 356
1031 20 4 0.0 78 210 355
1032 20 2 0.0 77 209 354
1033 20 2 0.0 77 210 354
1034 20 2 0.0 78 211 354
1035 20 2 0.0 79 211 354
1036 20 2 0.0 80 210 353
1037 20 4 0.0 81 210 352
1038 20 2 0.0 82 209 351
1039 20 2 0.0 81 208 350
1040 20 2 0.0 80 209 350
1041 20 2 0.0 80 210 350
1042 20 2 0.0 81 210 351
1043 20 2 0.0 82 211 352
1044 20 2 0.0 81 212 353
1045 20 2 0.0 82 213 352
1046 20 2 0.0 82 213 351
1047 20 4 0.0 82 214 352
1048 20 2 0.0 81 214 351
1049 20 4 0.0 81 214 350
1050 21 0 0.0 156 185 398
1051 21 1 0.0 155 185 397
1052 21 2 0.0 156 184 397
1053 21 3 0.0 156 183 397
1054 21 4 0.0 155 183 396
1055 21 5 0.0 154 182 395
1056 21 0 0.0 154 182 396
1057 21 6 0.0 155 182 396
1058 21 3 0.0 156 182 395
1059 21 5 0.0 157 183 395
1060 21 1 0.0 157 184 395
1061 21 7 0.0 157 183 396
1062 21 8 0.0 158 182 395
1063 21 6 0.0 158 183 395
1064 21 9 0.0 159 183 396
1065 21 8 0.0 158 184 395
1066 21 6 0.0 157 183 394
1067 21 6 0.0 156 184 394
1068 21 6 0.0 157 185 393
1069 21 7 0.0 158 186 392
1070 21 3 0.0 159 186 391
1071 21 5 0.0 158 185 391
1072 21 7 0.0 158 184 392
1073 21 5 0.0 158 185 392
1074 21 1 0.0 159 185 393
1075 21 3 0.0 160 184 393
1076 21 4 0.0 159 184 392
1077 21 3 0.0 159 184 391
1078 21 3 0.0 158 184 390
1079 21 5 0.0 158 184 389
1080 21 6 0.0 158 183 389
1081 21 4 0.0 157 184 390
1082 21 2 0.0 158 184 391
1083 21 2 0.0 157 185 391
1084 21 2 0.0 156 186 390
1085 21 2 0.0 155 185 391
1086 21 2 0.0 156 185 391
1087 21 4 0.0 155 186 390
1088 21 2 0.0 154 186 389
1089 21 2 0.0 153 187 390
1090 21 2 0.0 154 186 390
1091 21 2 0.0 154 187 390
1092 21 2 0.0 155 186 391
1093 21 2 0.0 156 187 391
1094 21 2 0.0 156 187 390
1095 21 2 0.0 156 188 390
1096 21 2 0.0 155 188 391
1097 21 4 0.0 155 187 392
1098 21 2 0.0 154 188 391
1099 21 4 0.0 154 187 392
1100 22 0 0.0 412 144 326
1101 22 1 0.0 411 143 325
1102 22 2 0.0 412 143 326
1103 22 3 0.0 413 143 326
1104 22 4 0.0 414 143 325
1105 22 5 0.0 414 144 326
1106 22 0 0.0 413 143 327
1107 22 6 0.0 414 143 327
1108 22 3 0.0 413 144 326
1109 22 5 0.0 412 145 326
1110 22 1 0.0 413 146 327
1111 22 7 0.0 413 147 327
1112 22 8 0.0 414 146 327
1113 22 6 0.0 414 147 326
1114 22 9 0.0 414 146 325
1115 22 8 0.0 415 146 326
1116 22 6 0.0 414 147 327
1117 22 6 0.0 414 146 328
1118 22 6 0.0 415 147 329
1119 22 7 0.0 416 147 330
1120 22 3 0.0 416 148 331
1121 22 5 0.0 417 148 332
1122 22 7 0.0 418 147 332
1123 22 5 0.0 418 147 331
1124 22 1 0.0 417 147 332
1125 22 3 0.0 416 148 333
1126 22 4 0.0 415 148 332
1127 22 3 0.0 414 148 332
1128 22 3 0.0 413 148 333
1129 22 5 0.0 412 147 334
1130 22 6 0.0 411 146 334
1131 22 4 0.0 410 146 335
1132 22 2 0.0 409 146 334
1133 22 2 0.0 410 145 334
1134 22 2 0.0 411 144 334
1135 22 2 0.0 412 144 334
1136 22 2 0.0 413 144 333
1137 22 4 0.0 412 143 333
1138 22 2 0.0 412 142 332
1139 22 2 0.0 411 142 331
1140 22 2 0.0 411 143 332
1141 22 2 0.0 412 144 331
1142 22 2 0.0 413 143 332
1143 22 2 0.0 414 144 333
1144 22 2 0.0 414 143 334
1145 22 2 0.0 413 144 334
1146 22 2 0.0 414 145 333
1147 22 4 0.0 413 144 332
1148 22 2 0.0 414 144 332
1149 22 4 0.0 413 145 331
1150 23 0 0.0 357 10 92
1151 23 1 0.0 356 9 91
1152 23 2 0.0 356 10 90
1153 23 3 0.0 355 11 90
1154 23 4 0.0 356 12 90
1155 23 5 0.0 355 13 90
1156 23 0 0.0 356 14 90
1157 23 6 0.0 357 15 91
1158 23 3 0.0 356 16 90
1159 23 5 0.0 357 15 90
1160 23 1 0.0 356 15 90
1161 23 7 0.0 355 16 91
1162 23 8 0.0 354 16 92
1163 23 6 0.0 355 17 91
1164 23 9 0.0 354 18 90
1165 23 8 0.0 354 19 91
1166 23 6 0.0 354 20 92
1167 23 6 0.0 353 21 92
1168 23 6 0.0 354 22 92
1169 23 7 0.0 353 23 92
1170 23 3 0.0 353 24 92
1171 23 5 0.0 353 23 93
1172 23 7 0.0 354 24 94
1173 23 5 0.0 353 23 95
1174 23 1 0.0 352 24 96
1175 23 3 0.0 353 24 97
1176 23 4 0.0 354 25 98
1177 23 3 0.0 355 25 98
1178 23 3 0.0 355 24 98
1179 23 5 0.0 355 23 97
1180 23 6 0.0 356 24 98
1181 23 4 0.0 355 25 97
1182 23 2 0.0 354 25 96
1183 23 2 0.0 353 25 96
1184 23 2 0.0 352 26 96
1185 23 2 0.0 353 26 95
1186 23 2 0.0 354 27 94
1187 23 4 0.0 354 28 94
1188 23 2 0.0 353 27 94
1189 23 2 0.0 353 28 95
1190 23 2 0.0 354 29 96
1191 23 2 0.0 353 28 96
1192 23 2 0.0 352 28 95
1193 23 2 0.0 351 28 95
1194 23 2 0.0 350 28 94
1195 23 2 0.0 349 28 93
1196 23 2 0.0 348 27 94
1197 23 4 0.0 347 27 94
1198 23 2 0.0 348 26 94
1199 23 4 0.0 349 25 94
1200 24 0 0.0 411 429 479
1201 24 1 0.0 410 429 480
1202 24 2 0.0 409 428 481
1203 24 3 0.0 410 427 482
1204 24 4 0.0 409 426 481
1205 24 5 0.0 409 427 480
1206 24 0 0.0 408 428 480
1207 24 6 0.0 407 427 481
1208 24 3 0.0 408 428 481
1209 24 5 0.0 407 427 482
1210 24 1 0.0 407 428 482
1211 24 7 0.0 408 428 482
1212 24 8 0.0 407 428 481
1213 24 6 0.0 407 427 480
1214 24 9 0.0 408 428 479
1215 24 8 0.0 407 427 479
1216 24 6 0.0 408 426 479
1217 24 6 0.0 408 426 480
1218 24 6 0.0 408 425 479
1219 24 7 0.0 409 426 480
1220 24 3 0.0 409 425 479
1221 24 5 0.0 409 424 480
1222 24 7 0.0 410 425 479
1223 24 5 0.0 410 425 480
1224 24 1 0.0 409 424 479
1225 24 3 0.0 408 425 480
1226 24 4 0.0 407 425 481
1227 24 3 0.0 407 424 482
1228 24 3 0.0 407 425 482
1229 24 5 0.0 408 425 481
1230 24 6 0.0 407 424 480
1231 24 4 0.0 408 424 481
1232 24 2 0.0 409 423 482
1233 24 2 0.0 409 424 481
1234 24 2 0.0 409 423 481