ITEM: TIMESTEP
0
ITEM: NUMBER OF ATOMS
10000
ITEM: BOX BOUNDS pp pp pp
0 500
0 500
0 500
ITEM: ATOMS id type mol x y z bP
0 0 0 88 390 136 1
1 1 0 89 391 135 0
2 2 0 88 390 135 -1
3 3 0 88 391 135 -1
4 4 0 87 391 135 -1
5 5 0 88 391 136 -1
6 0 0 87 390 137 10
7 6 0 86 391 136 -1
8 3 0 85 390 135 -1
9 5 0 86 390 136 -1
10 1 0 87 391 137 6
11 7 0 86 391 137 -1
12 8 0 86 391 138 -1
13 6 0 87 390 139 -1
14 9 0 86 389 138 -1
15 8 0 85 388 138 -1
16 6 0 86 388 138 -1
17 6 0 87 388 139 -1
18 6 0 87 388 140 -1
19 7 0 86 387 140 -1
20 3 0 86 387 139 -1
21 5 0 86 386 138 -1
22 7 0 86 387 137 -1
23 5 0 87 387 136 -1
24 1 0 88 388 137 -1
25 3 0 88 389 138 -1
26 4 0 88 390 138 -1
27 3 0 89 390 138 -1
28 3 0 90 390 139 -1
29 5 0 91 389 140 -1
30 6 0 91 390 141 -1
31 4 0 90 391 142 -1
32 2 0 91 391 143 -1
33 2 0 90 390 143 -1
34 2 0 89 389 142 -1
35 2 0 89 388 143 -1
36 2 0 88 388 143 -1
37 4 0 88 387 142 -1
38 2 0 89 387 142 -1
39 2 0 90 386 143 -1
40 2 0 90 387 143 -1
41 2 0 90 388 143 -1
42 2 0 91 389 144 -1
43 2 0 91 390 144 -1
44 2 0 92 389 144 -1
45 2 0 93 389 144 -1
46 2 0 94 389 143 -1
47 4 0 95 390 143 -1
48 2 0 95 391 142 -1
49 4 0 96 392 141 -1
50 0 1 277 198 282 51
51 1 1 278 198 283 50
52 2 1 278 199 282 -1
53 3 1 277 200 281 -1
54 4 1 277 199 282 -1
55 5 1 278 200 281 -1
56 0 1 279 199 282 -1
57 6 1 278 198 282 -1
58 3 1 278 197 283 -1
59 5 1 277 198 283 -1
60 1 1 276 197 283 -1
61 7 1 275 197 282 -1
62 8 1 276 198 283 -1
63 6 1 276 198 282 -1
64 9 1 276 198 281 -1
65 8 1 275 197 281 -1
66 6 1 275 196 282 -1
67 6 1 274 195 281 -1
68 6 1 273 196 280 -1
69 7 1 274 195 279 -1
70 3 1 273 195 280 -1
71 5 1 273 196 281 -1
72 7 1 272 197 282 -1
73 5 1 273 197 283 -1
74 1 1 272 197 284 -1
75 3 1 271 196 285 -1
76 4 1 271 195 284 -1
77 3 1 272 196 284 -1
78 3 1 273 196 285 -1
79 5 1 273 197 284 -1
80 6 1 272 198 285 -1
81 4 1 273 199 286 -1
82 2 1 274 200 287 -1
83 2 1 273 201 288 -1
84 2 1 274 200 288 -1
85 2 1 274 201 287 -1
86 2 1 273 200 287 -1
87 4 1 272 199 288 -1
88 2 1 273 200 289 -1
89 2 1 274 200 290 -1
90 2 1 273 201 289 -1
91 2 1 272 200 290 -1
92 2 1 272 201 291 -1
93 2 1 271 200 290 -1
94 2 1 272 200 291 -1
95 2 1 273 199 290 -1
96 2 1 274 199 290 -1
97 4 1 275 199 289 -1
98 2 1 275 200 290 -1
99 4 1 276 200 291 -1
100 0 2 217 152 119 -1
101 1 2 216 153 120 -1
102 2 2 217 154 120 -1
103 3 2 218 155 121 -1
104 4 2 218 155 122 -1
105 5 2 217 156 121 -1
106 0 2 216 155 122 110
107 6 2 216 155 121 -1
108 3 2 216 156 122 -1
109 5 2 215 156 123 -1
110 1 2 215 155 123 106
111 7 2 214 154 124 -1
112 8 2 215 155 124 -1
113 6 2 216 155 125 -1
114 9 2 215 155 125 -1
115 8 2 216 154 125 -1
116 6 2 215 154 124 -1
117 6 2 216 153 124 -1
118 6 2 217 153 124 -1
119 7 2 216 152 125 -1
120 3 2 216 151 124 -1
121 5 2 215 150 124 -1
122 7 2 215 150 123 -1
123 5 2 215 149 124 -1
124 1 2 215 149 123 -1
125 3 2 216 149 124 -1
126 4 2 217 149 125 -1
127 3 2 216 149 125 -1
128 3 2 215 150 125 -1
129 5 2 214 149 125 -1
130 6 2 214 148 126 -1
131 4 2 214 149 126 -1
132 2 2 214 150 127 -1
133 2 2 215 151 127 -1
134 2 2 214 152 128 -1
135 2 2 214 153 128 -1
136 2 2 215 153 129 -1
137 4 2 215 153 130 -1
138 2 2 214 153 131 -1
139 2 2 214 152 130 -1
140 2 2 213 152 129 -1
141 2 2 214 153 129 -1
142 2 2 213 154 130 -1
143 2 2 212 154 131 -1
144 2 2 211 155 132 -1
145 2 2 212 155 131 -1
146 2 2 211 154 130 -1
147 4 2 210 153 131 -1
148 2 2 209 153 130 -1
149 4 2 209 152 131 -1
150 0 3 481 422 405 151
151 1 3 482 421 406 150
152 2 3 483 422 407 -1
153 3 3 483 423 406 -1
154 4 3 483 424 407 -1
155 5 3 484 425 406 -1
156 0 3 484 424 406 160
157 6 3 484 424 405 -1
158 3 3 485 423 405 -1
159 5 3 484 424 404 -1
160 1 3 483 424 405 156
161 7 3 482 423 405 -1
162 8 3 482 424 406 -1
163 6 3 482 425 407 -1
164 9 3 481 426 408 -1
165 8 3 481 426 407 -1
166 6 3 482 427 406 -1
167 6 3 481 428 405 -1
168 6 3 482 428 406 -1
169 7 3 483 429 406 -1
170 3 3 482 430 407 -1
171 5 3 481 430 407 -1
172 7 3 482 431 408 -1
173 5 3 482 431 409 -1
174 1 3 483 430 408 -1
175 3 3 484 430 408 -1
176 4 3 483 430 409 -1
177 3 3 482 429 409 -1
178 3 3 482 430 408 -1
179 5 3 483 429 408 -1
180 6 3 482 430 409 -1
181 4 3 482 429 410 -1
182 2 3 483 428 411 -1
183 2 3 484 428 410 -1
184 2 3 485 428 409 -1
185 2 3 484 428 408 -1
186 2 3 485 427 409 -1
187 4 3 484 427 409 -1
188 2 3 483 426 409 -1
189 2 3 484 426 409 -1
190 2 3 485 426 410 -1
191 2 3 484 427 411 -1
192 2 3 483 426 410 -1
193 2 3 482 425 410 -1
194 2 3 483 425 410 -1
195 2 3 484 425 409 -1
196 2 3 484 424 408 -1
197 4 3 483 423 407 -1
198 2 3 482 424 408 -1
199 4 3 481 423 409 -1
200 0 4 462 479 266 -1
201 1 4 461 478 266 206
202 2 4 461 477 265 -1
203 3 4 461 477 266 -1
204 4 4 460 477 266 -1
205 5 4 459 478 267 -1
206 0 4 460 479 266 201
207 6 4 459 480 266 -1
208 3 4 460 479 267 -1
209 5 4 461 480 266 -1
210 1 4 462 480 266 -1
211 7 4 462 481 267 -1
212 8 4 463 482 266 -1
213 6 4 464 483 266 -1
214 9 4 463 484 265 -1
215 8 4 464 483 264 -1
216 6 4 464 484 264 -1
217 6 4 463 485 265 -1
218 6 4 462 484 265 -1
219 7 4 461 484 265 -1
220 3 4 460 483 266 -1
221 5 4 461 482 267 -1
222 7 4 462 482 266 -1
223 5 4 463 482 265 -1
224 1 4 462 481 265 -1
225 3 4 463 481 265 -1
226 4 4 463 482 264 -1
227 3 4 462 482 263 -1
228 3 4 463 481 263 -1
229 5 4 463 480 262 -1
230 6 4 462 479 261 -1
231 4 4 463 480 260 -1
232 2 4 463 481 261 -1
233 2 4 464 480 260 -1
234 2 4 464 481 260 -1
235 2 4 463 481 260 -1
236 2 4 462 482 261 -1
237 4 4 461 482 260 -1
238 2 4 461 482 259 -1
239 2 4 462 482 259 -1
240 2 4 462 482 260 -1
241 2 4 463 482 261 -1
242 2 4 464 483 260 -1
243 2 4 463 484 259 -1
244 2 4 464 485 259 -1
245 2 4 464 486 258 -1
246 2 4 465 486 259 -1
247 4 4 466 487 259 -1
248 2 4 466 488 259 -1
249 4 4 465 487 260 -1
250 0 5 279 111 370 251
251 1 5 280 110 370 250
252 2 5 279 109 369 -1
253 3 5 278 108 368 -1
254 4 5 277 107 369 -1
255 5 5 277 108 368 -1
256 0 5 277 107 368 260
257 6 5 278 108 367 -1
258 3 5 278 107 366 -1
259 5 5 278 106 366 -1
260 1 5 277 107 367 256
261 7 5 278 106 367 -1
262 8 5 277 106 367 -1
263 6 5 276 106 366 -1
264 9 5 275 107 365 -1
265 8 5 275 108 366 -1
266 6 5 275 109 367 -1
267 6 5 274 110 368 -1
268 6 5 275 111 369 -1
269 7 5 276 111 369 -1
270 3 5 277 110 370 -1
271 5 5 277 110 371 -1
272 7 5 278 109 370 -1
273 5 5 278 108 370 -1
274 1 5 279 107 369 -1
275 3 5 279 108 369 -1
276 4 5 280 107 368 -1
277 3 5 281 108 368 -1
278 3 5 282 108 369 -1
279 5 5 281 109 369 -1
280 6 5 282 109 369 -1
281 4 5 283 110 370 -1
282 2 5 284 110 371 -1
283 2 5 284 109 370 -1
284 2 5 285 109 370 -1
285 2 5 284 108 369 -1
286 2 5 285 107 369 -1
287 4 5 286 108 370 -1
288 2 5 286 109 370 -1
289 2 5 287 108 371 -1
290 2 5 287 107 370 -1
291 2 5 288 107 371 -1
292 2 5 289 106 372 -1
293 2 5 290 105 372 -1
294 2 5 291 106 371 -1
295 2 5 291 106 370 -1
296 2 5 291 105 370 -1
297 4 5 292 106 369 -1
298 2 5 293 105 370 -1
299 4 5 292 104 369 -1
300 0 6 173 76 251 301
301 1 6 174 76 252 300
302 2 6 175 75 251 -1
303 3 6 176 76 252 -1
304 4 6 177 76 252 -1
305 5 6 178 77 252 -1
306 0 6 179 76 251 310
307 6 6 180 75 251 -1
308 3 6 179 76 250 -1
309 5 6 179 75 251 -1
310 1 6 178 75 252 306
311 7 6 178 74 253 -1
312 8 6 178 74 252 -1
313 6 6 177 74 252 -1
314 9 6 176 74 251 -1
315 8 6 177 75 250 -1
316 6 6 178 75 251 -1
317 6 6 177 75 251 -1
318 6 6 177 74 250 -1
319 7 6 178 75 249 -1
320 3 6 179 75 249 -1
321 5 6 180 74 250 -1
322 7 6 180 73 251 -1
323 5 6 181 74 252 -1
324 1 6 180 75 252 -1
325 3 6 181 74 253 -1
326 4 6 182 73 252 -1
327 3 6 182 74 251 -1
328 3 6 181 73 250 -1
329 5 6 181 74 250 -1
330 6 6 182 75 251 -1
331 4 6 182 75 250 -1
332 2 6 181 76 250 -1
333 2 6 182 76 249 -1
334 2 6 181 77 249 -1
335 2 6 181 78 249 -1
336 2 6 181 79 249 -1
337 4 6 181 80 248 -1
338 2 6 182 79 247 -1
339 2 6 181 78 246 -1
340 2 6 181 78 245 -1
341 2 6 180 79 244 -1
342 2 6 179 79 244 -1
343 2 6 179 78 244 -1
344 2 6 178 78 245 -1
345 2 6 178 79 246 -1
346 2 6 179 78 245 -1
347 4 6 179 79 246 -1
348 2 6 180 78 245 -1
349 4 6 181 78 244 -1
350 0 7 213 273 388 351
351 1 7 214 272 387 350
352 2 7 213 273 386 -1
353 3 7 213 273 385 -1
354 4 7 213 273 384 -1
355 5 7 212 272 385 -1
356 0 7 213 272 386 -1
357 6 7 214 273 385 -1
358 3 7 215 274 386 -1
359 5 7 215 273 387 -1
360 1 7 214 272 386 -1
361 7 7 214 271 386 -1
362 8 7 214 270 387 -1
363 6 7 215 270 388 -1
364 9 7 216 269 388 -1
365 8 7 216 270 388 -1
366 6 7 217 270 389 -1
367 6 7 217 270 388 -1
368 6 7 218 269 389 -1
369 7 7 219 268 389 -1
370 3 7 219 269 388 -1
371 5 7 220 268 389 -1
372 7 7 219 268 388 -1
373 5 7 219 267 388 -1
374 1 7 220 267 389 -1
375 3 7 219 267 390 -1
376 4 7 218 268 389 -1
377 3 7 218 268 388 -1
378 3 7 219 267 387 -1
379 5 7 218 267 388 -1
380 6 7 218 266 388 -1
381 4 7 217 265 388 -1
382 2 7 217 266 389 -1
383 2 7 216 267 389 -1
384 2 7 217 268 389 -1
385 2 7 218 267 389 -1
386 2 7 219 266 388 -1
387 4 7 219 266 387 -1
388 2 7 220 267 386 -1
389 2 7 221 267 385 -1
390 2 7 222 266 386 -1
391 2 7 223 266 387 -1
392 2 7 222 265 387 -1
393 2 7 222 265 386 -1
394 2 7 221 266 386 -1
395 2 7 222 267 387 -1
396 2 7 222 266 388 -1
397 4 7 222 266 387 -1
398 2 7 221 265 388 -1
399 4 7 220 266 387 -1
400 0 8 448 272 275 401
401 1 8 448 273 274 400
402 2 8 448 273 273 -1
403 3 8 447 273 274 -1
404 4 8 446 273 273 -1
405 5 8 445 272 272 -1
406 0 8 444 272 272 410
407 6 8 443 273 271 -1
408 3 8 444 273 271 -1
409 5 8 444 272 271 -1
410 1 8 444 273 272 406
411 7 8 444 272 273 -1
412 8 8 443 272 272 -1
413 6 8 443 271 271 -1
414 9 8 444 270 270 -1
415 8 8 444 271 270 -1
416 6 8 444 272 270 -1
417 6 8 444 271 271 -1
418 6 8 445 270 270 -1
419 7 8 445 270 271 -1
420 3 8 446 270 270 -1
421 5 8 447 269 269 -1
422 7 8 448 269 268 -1
423 5 8 448 268 269 -1
424 1 8 449 268 269 -1
425 3 8 449 267 269 -1
426 4 8 450 267 268 -1
427 3 8 449 266 268 -1
428 3 8 450 266 267 -1
429 5 8 449 265 268 -1
430 6 8 450 265 267 -1
431 4 8 449 265 266 -1
432 2 8 449 266 267 -1
433 2 8 448 267 268 -1
434 2 8 449 267 268 -1
435 2 8 450 267 269 -1
436 2 8 451 267 269 -1
437 4 8 452 268 269 -1
438 2 8 453 268 269 -1
439 2 8 453 269 269 -1
440 2 8 452 270 270 -1
441 2 8 452 269 271 -1
442 2 8 453 269 270 -1
443 2 8 453 268 271 -1
444 2 8 454 268 272 -1
445 2 8 453 267 272 -1
446 2 8 452 267 272 -1
447 4 8 453 268 273 -1
448 2 8 453 267 274 -1
449 4 8 453 266 274 -1
450 0 9 81 402 294 451
451 1 9 80 403 293 450
452 2 9 79 402 292 -1
453 3 9 80 403 292 -1
454 4 9 81 402 291 -1
455 5 9 82 401 290 -1
456 0 9 81 401 290 460
457 6 9 81 402 290 -1
458 3 9 80 401 290 -1
459 5 9 80 401 289 -1
460 1 9 80 402 289 456
461 7 9 79 402 289 -1
462 8 9 79 403 289 -1
463 6 9 80 404 290 -1
464 9 9 81 403 290 -1
465 8 9 81 404 290 -1
466 6 9 80 403 289 -1
467 6 9 81 402 289 -1
468 6 9 80 401 288 -1
469 7 9 81 402 287 -1
470 3 9 81 401 287 -1
471 5 9 82 400 286 -1
472 7 9 82 401 285 -1
473 5 9 83 401 286 -1
474 1 9 83 400 287 -1
475 3 9 84 399 288 -1
476 4 9 84 398 287 -1
477 3 9 84 398 288 -1
478 3 9 85 399 288 -1
479 5 9 84 399 289 -1
480 6 9 83 400 289 -1
481 4 9 83 401 288 -1
482 2 9 84 400 289 -1
483 2 9 83 399 290 -1
484 2 9 83 400 291 -1
485 2 9 84 401 290 -1
486 2 9 83 400 290 -1
487 4 9 82 400 291 -1
488 2 9 83 399 291 -1
489 2 9 82 398 291 -1
490 2 9 81 397 291 -1
491 2 9 81 397 290 -1
492 2 9 81 396 291 -1
493 2 9 80 397 291 -1
494 2 9 80 397 290 -1
495 2 9 80 398 291 -1
496 2 9 79 399 292 -1
497 4 9 78 400 291 -1
498 2 9 79 401 290 -1
499 4 9 80 400 291 -1
500 0 10 490 348 142 501
501 1 10 490 348 143 500
502 2 10 490 349 144 -1
503 3 10 489 350 144 -1
504 4 10 489 351 143 -1
505 5 10 488 350 142 -1
506 0 10 489 351 142 -1
507 6 10 490 350 142 -1
508 3 10 490 351 143 -1
509 5 10 491 350 142 -1
510 1 10 490 349 141 -1
511 7 10 489 350 140 -1
512 8 10 489 351 140 -1
513 6 10 488 351 140 -1
514 9 10 487 351 141 -1
515 8 10 486 352 140 -1
516 6 10 485 353 140 -1
517 6 10 485 353 141 -1
518 6 10 484 352 140 -1
519 7 10 485 351 139 -1
520 3 10 485 351 140 -1
521 5 10 485 351 141 -1
522 7 10 484 350 141 -1
523 5 10 483 349 141 -1
524 1 10 482 348 141 -1
525 3 10 483 348 142 -1
526 4 10 484 349 142 -1
527 3 10 485 348 142 -1
528 3 10 486 348 142 -1
529 5 10 485 347 142 -1
530 6 10 484 346 143 -1
531 4 10 485 345 142 -1
532 2 10 484 346 142 -1
533 2 10 483 345 143 -1
534 2 10 483 346 143 -1
535 2 10 483 347 143 -1
536 2 10 482 346 142 -1
537 4 10 482 347 142 -1
538 2 10 481 347 142 -1
539 2 10 481 346 142 -1
540 2 10 481 345 142 -1
541 2 10 480 346 143 -1
542 2 10 479 345 144 -1
543 2 10 479 346 143 -1
544 2 10 480 347 143 -1
545 2 10 479 347 144 -1
546 2 10 478 346 145 -1
547 4 10 477 346 144 -1
548 2 10 476 347 144 -1
549 4 10 476 347 143 -1
550 0 11 290 326 71 551
551 1 11 291 325 70 550
552 2 11 290 324 70 -1
553 3 11 289 324 71 -1
554 4 11 289 324 72 -1
555 5 11 289 323 72 -1
556 0 11 289 322 73 560
557 6 11 288 323 74 -1
558 3 11 289 322 74 -1
559 5 11 290 322 73 -1
560 1 11 289 321 74 556
561 7 11 289 320 74 -1
562 8 11 289 319 75 -1
563 6 11 289 318 74 -1
564 9 11 290 318 73 -1
565 8 11 290 318 74 -1
566 6 11 289 318 73 -1
567 6 11 288 317 73 -1
568 6 11 289 317 73 -1
569 7 11 289 316 72 -1
570 3 11 290 317 71 -1
571 5 11 290 316 71 -1
572 7 11 291 315 71 -1
573 5 11 290 315 71 -1
574 1 11 291 315 72 -1
575 3 11 290 316 72 -1
576 4 11 290 317 73 -1
577 3 11 289 317 74 -1
578 3 11 288 316 73 -1
579 5 11 288 316 72 -1
580 6 11 287 315 73 -1
581 4 11 287 315 74 -1
582 2 11 288 314 74 -1
583 2 11 289 315 73 -1
584 2 11 288 314 72 -1
585 2 11 289 313 72 -1
586 2 11 289 312 72 -1
587 4 11 290 312 72 -1
588 2 11 290 312 73 -1
589 2 11 289 312 74 -1
590 2 11 288 311 73 -1
591 2 11 287 311 73 -1
592 2 11 286 311 72 -1
593 2 11 286 311 73 -1
594 2 11 286 312 74 -1
595 2 11 286 313 74 -1
596 2 11 285 312 74 -1
597 4 11 284 312 73 -1
598 2 11 284 311 74 -1
599 4 11 285 310 74 -1
600 0 12 347 99 343 601
601 1 12 347 98 343 600
602 2 12 347 97 342 -1
603 3 12 348 96 342 -1
604 4 12 348 95 343 -1
605 5 12 348 96 344 -1
606 0 12 349 97 343 610
607 6 12 349 96 344 -1
608 3 12 350 95 344 -1
609 5 12 351 95 343 -1
610 1 12 350 96 344 606
611 7 12 350 97 343 -1
612 8 12 351 98 342 -1
613 6 12 351 97 341 -1
614 9 12 350 97 342 -1
615 8 12 349 97 342 -1
616 6 12 348 96 341 -1
617 6 12 349 95 340 -1
618 6 12 350 96 341 -1
619 7 12 351 97 342 -1
620 3 12 350 98 343 -1
621 5 12 349 97 344 -1
622 7 12 348 98 344 -1
623 5 12 348 99 344 -1
624 1 12 349 100 345 -1
625 3 12 349 100 344 -1
626 4 12 349 100 343 -1
627 3 12 349 99 344 -1
628 3 12 348 100 343 -1
629 5 12 347 101 344 -1
630 6 12 346 102 343 -1
631 4 12 345 103 343 -1
632 2 12 346 102 342 -1
633 2 12 345 102 341 -1
634 2 12 345 103 342 -1
635 2 12 344 104 343 -1
636 2 12 343 104 344 -1
637 4 12 344 105 345 -1
638 2 12 344 105 346 -1
639 2 12 345 104 346 -1
640 2 12 346 105 345 -1
641 2 12 347 105 344 -1
642 2 12 348 106 344 -1
643 2 12 348 106 343 -1
644 2 12 349 107 342 -1
645 2 12 348 106 341 -1
646 2 12 348 106 342 -1
647 4 12 348 107 341 -1
648 2 12 348 108 341 -1
649 4 12 347 109 341 -1
650 0 13 346 128 199 -1
651 1 13 347 127 198 -1
652 2 13 348 128 198 -1
653 3 13 347 127 199 -1
654 4 13 348 127 200 -1
655 5 13 347 126 200 -1
656 0 13 346 127 201 660
657 6 13 347 127 201 -1
658 3 13 347 128 201 -1
659 5 13 346 129 200 -1
660 1 13 345 128 200 656
661 7 13 344 128 201 -1
662 8 13 345 127 200 -1
663 6 13 345 126 201 -1
664 9 13 346 126 200 -1
665 8 13 347 125 201 -1
666 6 13 346 124 202 -1
667 6 13 345 123 203 -1
668 6 13 344 122 202 -1
669 7 13 344 121 203 -1
670 3 13 344 120 204 -1
671 5 13 343 121 204 -1
672 7 13 342 121 203 -1
673 5 13 342 120 202 -1
674 1 13 342 119 201 -1
675 3 13 343 119 201 -1
676 4 13 342 119 200 -1
677 3 13 341 120 199 -1
678 3 13 340 119 198 -1
679 5 13 339 120 197 -1
680 6 13 338 121 198 -1
681 4 13 337 120 198 -1
682 2 13 337 121 197 -1
683 2 13 336 120 197 -1
684 2 13 335 119 198 -1
685 2 13 334 119 198 -1
686 2 13 334 118 197 -1
687 4 13 334 119 196 -1
688 2 13 333 118 196 -1
689 2 13 333 119 195 -1
690 2 13 334 118 196 -1
691 2 13 334 117 197 -1
692 2 13 335 116 197 -1
693 2 13 335 115 197 -1
694 2 13 335 115 196 -1
695 2 13 335 114 195 -1
696 2 13 334 113 196 -1
697 4 13 334 112 195 -1
698 2 13 335 112 195 -1
699 4 13 336 112 196 -1
700 0 14 185 114 293 701
701 1 14 185 113 294 700
702 2 14 186 113 294 -1
703 3 14 185 114 295 -1
704 4 14 186 114 296 -1
705 5 14 186 114 295 -1
706 0 14 185 115 296 -1
707 6 14 185 114 296 -1
708 3 14 185 113 297 -1
709 5 14 186 113 298 -1
710 1 14 185 112 299 -1
711 7 14 185 113 299 -1
712 8 14 186 113 300 -1
713 6 14 186 112 301 -1
714 9 14 186 113 302 -1
715 8 14 186 114 303 -1
716 6 14 187 113 302 -1
717 6 14 186 112 303 -1
718 6 14 186 111 303 -1
719 7 14 185 111 303 -1
720 3 14 185 110 302 -1
721 5 14 184 109 303 -1
722 7 14 183 108 304 -1
723 5 14 183 108 305 -1
724 1 14 183 109 306 -1
725 3 14 184 110 307 -1
726 4 14 183 110 308 -1
727 3 14 184 109 307 -1
728 3 14 185 110 307 -1
729 5 14 184 109 308 -1
730 6 14 185 108 308 -1
731 4 14 186 109 307 -1
732 2 14 186 110 306 -1
733 2 14 185 111 305 -1
734 2 14 186 110 304 -1
735 2 14 185 109 303 -1
736 2 14 184 108 304 -1
737 4 14 185 108 305 -1
738 2 14 185 109 304 -1
739 2 14 186 110 305 -1
740 2 14 187 111 304 -1
741 2 14 187 111 303 -1
742 2 14 187 110 302 -1
743 2 14 186 110 302 -1
744 2 14 187 109 302 -1
745 2 14 187 108 303 -1
746 2 14 188 107 304 -1
747 4 14 189 106 305 -1
748 2 14 188 106 306 -1
749 4 14 187 107 307 -1
750 0 15 311 218 340 751
751 1 15 312 217 339 750
752 2 15 311 217 339 -1
753 3 15 312 216 338 -1
754 4 15 313 215 338 -1
755 5 15 313 214 337 -1
756 0 15 313 215 337 760
757 6 15 312 215 338 -1
758 3 15 313 216 337 -1
759 5 15 312 215 337 -1
760 1 15 312 214 336 756
761 7 15 311 214 336 -1
762 8 15 311 213 336 -1
763 6 15 310 213 335 -1
764 9 15 309 213 334 -1
765 8 15 310 212 333 -1
766 6 15 309 213 333 -1
767 6 15 309 213 332 -1
768 6 15 310 213 331 -1
769 7 15 310 212 331 -1
770 3 15 309 212 331 -1
771 5 15 309 213 330 -1
772 7 15 308 213 331 -1
773 5 15 307 214 331 -1
774 1 15 308 213 332 -1
775 3 15 309 214 331 -1
776 4 15 308 215 331 -1
777 3 15 307 214 332 -1
778 3 15 307 213 332 -1
779 5 15 306 214 331 -1
780 6 15 305 213 330 -1
781 4 15 306 212 330 -1
782 2 15 305 212 331 -1
783 2 15 304 213 332 -1
784 2 15 305 214 332 -1
785 2 15 304 213 333 -1
786 2 15 305 213 333 -1
787 4 15 305 214 334 -1
788 2 15 305 215 333 -1
789 2 15 304 214 333 -1
790 2 15 304 214 332 -1
791 2 15 305 215 332 -1
792 2 15 306 216 331 -1
793 2 15 307 216 331 -1
794 2 15 306 215 330 -1
795 2 15 305 215 330 -1
796 2 15 304 215 330 -1
797 4 15 304 214 331 -1
798 2 15 305 215 331 -1
799 4 15 304 216 330 -1
800 0 16 31 304 311 801
801 1 16 32 305 310 800
802 2 16 32 306 311 -1
803 3 16 31 306 312 -1
804 4 16 32 305 313 -1
805 5 16 33 305 312 -1
806 0 16 33 304 312 810
807 6 16 33 303 311 -1
808 3 16 34 302 312 -1
809 5 16 33 302 312 -1
810 1 16 34 303 311 806
811 7 16 34 303 312 -1
812 8 16 35 304 313 -1
813 6 16 34 305 313 -1
814 9 16 33 306 312 -1
815 8 16 32 305 311 -1
816 6 16 33 305 311 -1
817 6 16 33 304 311 -1
818 6 16 33 303 312 -1
819 7 16 33 303 313 -1
820 3 16 32 302 314 -1
821 5 16 32 303 315 -1
822 7 16 33 304 315 -1
823 5 16 33 303 315 -1
824 1 16 32 302 316 -1
825 3 16 31 302 315 -1
826 4 16 32 301 315 -1
827 3 16 33 300 314 -1
828 3 16 34 300 313 -1
829 5 16 33 301 314 -1
830 6 16 33 300 315 -1
831 4 16 32 300 315 -1
832 2 16 32 300 316 -1
833 2 16 31 300 316 -1
834 2 16 30 300 317 -1
835 2 16 30 300 318 -1
836 2 16 29 300 319 -1
837 4 16 29 301 320 -1
838 2 16 29 302 319 -1
839 2 16 30 302 320 -1
840 2 16 29 301 319 -1
841 2 16 30 301 318 -1
842 2 16 30 302 319 -1
843 2 16 31 301 319 -1
844 2 16 32 302 318 -1
845 2 16 32 301 317 -1
846 2 16 33 300 318 -1
847 4 16 34 299 317 -1
848 2 16 34 298 318 -1
849 4 16 33 298 319 -1
850 0 17 328 13 184 851
851 1 17 327 12 184 850
852 2 17 328 11 185 -1
853 3 17 328 11 184 -1
854 4 17 327 10 184 -1
855 5 17 327 9 183 -1
856 0 17 328 10 183 860
857 6 17 328 11 183 -1
858 3 17 329 11 184 -1
859 5 17 330 10 183 -1
860 1 17 329 11 183 856
861 7 17 330 11 182 -1
862 8 17 329 12 181 -1
863 6 17 330 11 180 -1
864 9 17 329 10 179 -1
865 8 17 328 10 180 -1
866 6 17 327 11 181 -1
867 6 17 327 12 180 -1
868 6 17 326 12 181 -1
869 7 17 326 13 182 -1
870 3 17 325 13 183 -1
871 5 17 324 12 184 -1
872 7 17 324 12 185 -1
873 5 17 324 13 184 -1
874 1 17 323 13 185 -1
875 3 17 323 12 184 -1
876 4 17 322 13 183 -1
877 3 17 321 14 183 -1
878 3 17 321 14 184 -1
879 5 17 321 13 184 -1
880 6 17 321 13 185 -1
881 4 17 322 13 184 -1
882 2 17 323 13 184 -1
883 2 17 324 12 183 -1
884 2 17 324 13 182 -1
885 2 17 325 14 181 -1
886 2 17 325 13 180 -1
887 4 17 325 13 181 -1
888 2 17 324 14 180 -1
889 2 17 323 13 180 -1
890 2 17 322 14 179 -1
891 2 17 321 15 180 -1
892 2 17 321 16 181 -1
893 2 17 321 17 181 -1
894 2 17 322 16 182 -1
895 2 17 322 15 181 -1
896 2 17 323 14 182 -1
897 4 17 324 15 182 -1
898 2 17 324 14 183 -1
899 4 17 323 13 182 -1
900 0 18 381 3 254 -1
901 1 18 382 4 254 -1
902 2 18 383 3 253 -1
903 3 18 382 3 254 -1
904 4 18 381 2 255 -1
905 5 18 381 3 256 -1
906 0 18 381 4 257 910
907 6 18 382 5 258 -1
908 3 18 382 4 258 -1
909 5 18 382 4 257 -1
910 1 18 381 4 256 906
911 7 18 381 3 257 -1
912 8 18 381 2 256 -1
913 6 18 382 3 256 -1
914 9 18 383 3 256 -1
915 8 18 384 2 255 -1
916 6 18 383 3 254 -1
917 6 18 382 2 253 -1
918 6 18 381 1 253 -1
919 7 18 382 0 253 -1
920 3 18 383 0 253 -1
921 5 18 384 0 254 -1
922 7 18 383 499 254 -1
923 5 18 382 0 255 -1
924 1 18 381 0 256 -1
925 3 18 381 499 257 -1
926 4 18 381 498 258 -1
927 3 18 380 498 258 -1
928 3 18 379 499 259 -1
929 5 18 378 498 259 -1
930 6 18 378 498 260 -1
931 4 18 378 499 259 -1
932 2 18 378 0 260 -1
933 2 18 377 0 261 -1
934 2 18 377 1 262 -1
935 2 18 378 2 263 -1
936 2 18 378 1 264 -1
937 4 18 379 2 265 -1
938 2 18 378 1 265 -1
939 2 18 379 2 266 -1
940 2 18 378 1 266 -1
941 2 18 379 0 265 -1
942 2 18 380 0 266 -1
943 2 18 379 1 267 -1
944 2 18 380 0 268 -1
945 2 18 379 0 267 -1
946 2 18 379 1 268 -1
947 4 18 380 1 268 -1
948 2 18 381 2 268 -1
949 4 18 382 2 269 -1
950 0 19 278 270 258 -1
951 1 19 279 270 257 -1
952 2 19 280 271 258 -1
953 3 19 280 271 259 -1
954 4 19 280 272 260 -1
955 5 19 281 273 259 -1
956 0 19 281 272 258 960
957 6 19 280 272 258 -1
958 3 19 279 273 257 -1
959 5 19 279 274 257 -1
960 1 19 280 273 258 956
961 7 19 281 274 259 -1
962 8 19 281 273 260 -1
963 6 19 281 272 261 -1
964 9 19 281 271 262 -1
965 8 19 280 271 262 -1
966 6 19 280 270 263 -1
967 6 19 279 270 263 -1
968 6 19 278 271 262 -1
969 7 19 278 271 261 -1
970 3 19 277 271 261 -1
971 5 19 276 271 260 -1
972 7 19 276 270 259 -1
973 5 19 275 271 259 -1
974 1 19 274 271 260 -1
975 3 19 273 272 260 -1
976 4 19 272 271 259 -1
977 3 19 272 272 258 -1
978 3 19 272 273 257 -1
979 5 19 271 272 257 -1
980 6 19 271 272 258 -1
981 4 19 270 272 258 -1
982 2 19 270 273 257 -1
983 2 19 270 273 256 -1
984 2 19 270 274 257 -1
985 2 19 269 274 256 -1
986 2 19 269 274 255 -1
987 4 19 269 275 256 -1
988 2 19 268 275 257 -1
989 2 19 269 274 257 -1
990 2 19 269 273 258 -1
991 2 19 270 274 258 -1
992 2 19 271 274 258 -1
993 2 19 271 274 259 -1
994 2 19 272 274 259 -1
995 2 19 273 273 258 -1
996 2 19 272 272 259 -1
997 4 19 273 271 258 -1
998 2 19 272 271 258 -1
999 4 19 273 272 258 -1
1000 0 20 260 386 28 1001
1001 1 20 261 387 27 1000
1002 2 20 261 387 26 -1
1003 3 20 262 387 26 -1
1004 4 20 262 387 25 -1
1005 5 20 262 388 25 -1
1006 0 20 263 388 25 1010
1007 6 20 262 388 24 -1
1008 3 20 262 389 24 -1
1009 5 20 263 389 25 -1
1010 1 20 262 389 25 1006
1011 7 20 261 389 26 -1
1012 8 20 261 388 26 -1
1013 6 20 262 389 27 -1
1014 9 20 262 389 28 -1
1015 8 20 262 388 27 -1
1016 6 20 261 388 28 -1
1017 6 20 262 387 27 -1
1018 6 20 261 386 26 -1
1019 7 20 260 386 25 -1
1020 3 20 260 387 26 -1
1021 5 20 259 387 26 -1
1022 7 20 260 386 26 -1
1023 5 20 259 386 26 -1
1024 1 20 259 385 25 -1
1025 3 20 258 386 24 -1
1026 4 20 258 387 23 -1
1027 3 20 258 388 23 -1
1028 3 20 257 388 23 -1
1029 5 20 257 388 24 -1
1030 6 20 257 388 25 -1
1031 4 20 257 389 26 -1
1032 2 20 258 390 25 -1
1033 2 20 259 389 26 -1
1034 2 20 259 388 26 -1
1035 2 20 258 389 27 -1
1036 2 20 257 390 28 -1
1037 4 20 258 390 29 -1
1038 2 20 257 391 29 -1
1039 2 20 256 390 28 -1
1040 2 20 256 391 29 -1
1041 2 20 256 391 30 -1
1042 2 20 256 391 31 -1
1043 2 20 255 390 30 -1
1044 2 20 256 390 29 -1
1045 2 20 257 390 29 -1
1046 2 20 258 389 30 -1
1047 4 20 257 390 30 -1
1048 2 20 256 389 30 -1
1049 4 20 257 389 29 -1
1050 0 21 112 250 499 1051
1051 1 21 111 250 498 1050
1052 2 21 111 249 497 -1
1053 3 21 110 249 496 -1
1054 4 21 111 250 496 -1
1055 5 21 111 250 497 -1
1056 0 21 110 251 496 -1
1057 6 21 109 251 497 -1
1058 3 21 109 251 496 -1
1059 5 21 108 252 495 -1
1060 1 21 109 251 495 -1
1061 7 21 108 250 495 -1
1062 8 21 107 251 494 -1
1063 6 21 108 250 493 -1
1064 9 21 107 250 494 -1
1065 8 21 106 251 493 -1
1066 6 21 107 252 494 -1
1067 6 21 108 252 493 -1
1068 6 21 108 251 492 -1
1069 7 21 107 250 491 -1
1070 3 21 108 250 490 -1
1071 5 21 108 251 490 -1
1072 7 21 107 250 489 -1
1073 5 21 107 250 488 -1
1074 1 21 106 250 487 -1
1075 3 21 105 250 487 -1
1076 4 21 106 250 488 -1
1077 3 21 106 250 489 -1
1078 3 21 105 249 490 -1
1079 5 21 105 250 489 -1
1080 6 21 104 249 490 -1
1081 4 21 105 250 491 -1
1082 2 21 104 249 491 -1
1083 2 21 104 250 490 -1
1084 2 21 103 249 491 -1
1085 2 21 104 250 491 -1
1086 2 21 105 251 490 -1
1087 4 21 105 251 491 -1
1088 2 21 104 252 492 -1
1089 2 21 103 253 492 -1
1090 2 21 104 253 493 -1
1091 2 21 103 254 492 -1
1092 2 21 103 254 491 -1
1093 2 21 103 254 490 -1
1094 2 21 103 255 490 -1
1095 2 21 104 255 490 -1
1096 2 21 103 256 491 -1
1097 4 21 102 257 490 -1
1098 2 21 102 258 491 -1
1099 4 21 101 257 491 -1
1100 0 22 286 292 475 1101
1101 1 22 286 292 476 1100
1102 2 22 287 292 475 -1
1103 3 22 286 291 476 -1
1104 4 22 285 291 475 -1
1105 5 22 286 292 474 -1
1106 0 22 286 291 474 1110
1107 6 22 287 290 473 -1
1108 3 22 286 290 472 -1
1109 5 22 287 291 472 -1
1110 1 22 286 290 473 1106
1111 7 22 285 289 473 -1
1112 8 22 286 288 474 -1
1113 6 22 287 288 475 -1
1114 9 22 288 288 476 -1
1115 8 22 289 289 477 -1
1116 6 22 288 288 477 -1
1117 6 22 288 288 478 -1
1118 6 22 287 287 478 -1
1119 7 22 288 286 477 -1
1120 3 22 289 286 478 -1
1121 5 22 288 286 478 -1
1122 7 22 287 286 477 -1
1123 5 22 288 287 478 -1
1124 1 22 288 286 479 -1
1125 3 22 289 286 479 -1
1126 4 22 289 287 480 -1
1127 3 22 290 288 481 -1
1128 3 22 290 289 480 -1
1129 5 22 291 290 480 -1
1130 6 22 291 291 479 -1
1131 4 22 292 290 480 -1
1132 2 22 292 290 479 -1
1133 2 22 293 291 479 -1
1134 2 22 293 292 478 -1
1135 2 22 294 293 477 -1
1136 2 22 295 293 477 -1
1137 4 22 296 292 478 -1
1138 2 22 297 291 477 -1
1139 2 22 296 292 477 -1
1140 2 22 295 293 478 -1
1141 2 22 295 292 479 -1
1142 2 22 295 291 478 -1
1143 2 22 296 290 479 -1
1144 2 22 297 289 479 -1
1145 2 22 296 290 478 -1
1146 2 22 295 290 477 -1
1147 4 22 296 289 478 -1
1148 2 22 295 288 477 -1
1149 4 22 294 287 478 -1
1150 0 23 239 450 422 1151
1151 1 23 239 451 422 1150
1152 2 23 239 450 423 -1
1153 3 23 238 450 423 -1
1154 4 23 237 449 423 -1
1155 5 23 236 449 424 -1
1156 0 23 236 449 423 1160
1157 6 23 236 449 422 -1
1158 3 23 235 450 423 -1
1159 5 23 234 449 424 -1
1160 1 23 235 448 424 1156
1161 7 23 235 447 425 -1
1162 8 23 234 447 425 -1
1163 6 23 234 446 426 -1
1164 9 23 234 446 425 -1
1165 8 23 233 445 424 -1
1166 6 23 233 446 424 -1
1167 6 23 232 447 423 -1
1168 6 23 231 446 424 -1
1169 7 23 231 446 423 -1
1170 3 23 231 445 422 -1
1171 5 23 230 445 422 -1
1172 7 23 230 444 421 -1
1173 5 23 229 444 420 -1
1174 1 23 229 443 419 -1
1175 3 23 229 444 418 -1
1176 4 23 229 444 419 -1
1177 3 23 229 445 419 -1
1178 3 23 228 444 418 -1
1179 5 23 228 445 417 -1
1180 6 23 228 444 416 -1
1181 4 23 228 443 416 -1
1182 2 23 227 444 415 -1
1183 2 23 228 443 414 -1
1184 2 23 228 442 414 -1
1185 2 23 227 443 415 -1
1186 2 23 226 443 414 -1
1187 4 23 225 442 415 -1
1188 2 23 224 441 415 -1
1189 2 23 225 440 416 -1
1190 2 23 225 441 416 -1
1191 2 23 224 442 415 -1
1192 2 23 224 442 416 -1
1193 2 23 224 441 416 -1
1194 2 23 225 440 415 -1
1195 2 23 226 440 414 -1
1196 2 23 227 439 414 -1
1197 4 23 228 440 413 -1
1198 2 23 228 440 414 -1
1199 4 23 227 441 413 -1
1200 0 24 257 258 75 -1
1201 1 24 257 257 76 -1
1202 2 24 256 257 77 -1
1203 3 24 255 256 76 -1
1204 4 24 255 255 77 -1
1205 5 24 256 255 78 -1
1206 0 24 255 256 78 1210
1207 6 24 254 256 78 -1
1208 3 24 254 257 77 -1
1209 5 24 255 256 77 -1
1210 1 24 254 256 77 1206
1211 7 24 254 255 77 -1
1212 8 24 254 254 76 -1
1213 6 24 253 254 76 -1
1214 9 24 252 254 77 -1
1215 8 24 253 253 77 -1
1216 6 24 254 253 76 -1
1217 6 24 255 253 75 -1
1218 6 24 256 253 75 -1
1219 7 24 257 254 74 -1
1220 3 24 257 255 73 -1
1221 5 24 256 256 72 -1
1222 7 24 256 257 73 -1
1223 5 24 255 258 73 -1
1224 1 24 256 259 72 -1
1225 3 24 255 260 71 -1
1226 4 24 254 259 71 -1
1227 3 24 253 260 72 -1
1228 3 24 253 261 73 -1
1229 5 24 254 260 73 -1
1230 6 24 254 260 72 -1
1231 4 24 253 259 72 -1
1232 2 24 252 260 71 -1
1233 2 24 252 261 71 -1
1234 2 24 251 260 70 -1
1235 2 24 251 259 70 -1
1236 2 24 251 260 69 -1
1237 4 24 251 261 70 -1
1238 2 24 251 260 71 -1
1239 2 24 251 260 72 -1
1240 2 24 252 261 73 -1
1241 2 24 251 261 73 -1
1242 2 24 250 260 73 -1
1243 2 24 249 261 74 -1
1244 2 24 248 260 73 -1
1245 2 24 247 260 73 -1
1246 2 24 248 259 74 -1
1247 4 24 248 259 75 -1
1248 2 24 247 258 75 -1
1249 4 24 246 257 76 -1
1250 0 25 102 121 161 1251
1251 1 25 103 122 162 1250
1252 2 25 104 123 163 -1
1253 3 25 103 122 163 -1
1254 4 25 102 122 163 -1
1255 5 25 102 123 163 -1
1256 0 25 101 124 162 -1
1257 6 25 100 125 162 -1
1258 3 25 101 125 161 -1
1259 5 25 102 125 161 -1
1260 1 25 102 125 162 -1
1261 7 25 102 124 163 -1
1262 8 25 102 123 162 -1
1263 6 25 102 122 161 -1
1264 9 25 103 122 160 -1
1265 8 25 104 123 159 -1
1266 6 25 103 124 159 -1
1267 6 25 104 125 158 -1
1268 6 25 105 126 157 -1
1269 7 25 105 127 158 -1
1270 3 25 106 126 159 -1
1271 5 25 107 125 158 -1
1272 7 25 108 125 158 -1
1273 5 25 107 124 159 -1
1274 1 25 107 123 160 -1
1275 3 25 107 124 161 -1