ITEM: TIMESTEP
0
ITEM: NUMBER OF ATOMS
10000
ITEM: BOX BOUNDS pp pp pp
0 500
0 500
0 500
ITEM: ATOMS id type mol x y z bP
0 0 0 423 31 349 -1
1 1 0 423 30 348 -1
2 2 0 424 29 347 -1
3 3 0 425 29 347 -1
4 4 0 425 30 347 -1
5 5 0 426 29 348 -1
6 0 0 426 30 348 -1
7 6 0 426 31 349 -1
8 3 0 427 31 350 -1
9 5 0 427 32 349 -1
10 1 0 426 33 350 -1
11 7 0 427 34 350 -1
12 8 0 428 33 350 -1
13 6 0 428 34 351 -1
14 9 0 427 35 351 -1
15 8 0 427 36 352 -1
16 6 0 428 36 351 -1
17 6 0 429 36 351 -1
18 6 0 430 36 352 -1
19 7 0 429 35 353 -1
20 3 0 428 36 353 -1
21 5 0 427 37 352 -1
22 7 0 428 37 352 -1
23 5 0 427 37 353 -1
24 1 0 427 36 354 -1
25 3 0 428 37 354 -1
26 4 0 428 38 354 -1
27 3 0 428 37 353 -1
28 3 0 427 38 353 -1
29 5 0 427 39 353 -1
30 6 0 428 40 353 -1
31 4 0 428 40 352 -1
32 2 0 427 41 352 -1
33 2 0 428 41 353 -1
34 2 0 427 41 353 -1
35 2 0 426 42 354 -1
36 2 0 426 42 355 -1
37 4 0 425 43 355 -1
38 2 0 425 44 354 -1
39 2 0 426 45 355 -1
40 2 0 425 44 355 -1
41 2 0 425 44 356 -1
42 2 0 424 44 357 -1
43 2 0 424 44 356 -1
44 2 0 423 44 357 -1
45 2 0 423 44 356 -1
46 2 0 424 44 355 -1
47 4 0 425 43 354 -1
48 2 0 426 43 354 -1
49 4 0 425 43 353 -1
50 0 1 302 306 267 51
51 1 1 303 307 267 50
52 2 1 304 307 266 -1
53 3 1 303 308 265 -1
54 4 1 302 309 266 -1
55 5 1 303 310 267 -1
56 0 1 304 311 268 74
57 6 1 305 312 268 -1
58 3 1 306 312 269 -1
59 5 1 306 313 269 -1
60 1 1 307 314 269 -1
61 7 1 308 314 268 -1
62 8 1 307 313 269 -1
63 6 1 307 313 268 -1
64 9 1 307 312 269 -1
65 8 1 308 312 268 -1
66 6 1 307 312 268 -1
67 6 1 306 311 269 -1
68 6 1 307 310 270 -1
69 7 1 308 309 270 -1
70 3 1 307 309 271 -1
71 5 1 306 310 271 -1
72 7 1 306 311 270 -1
73 5 1 305 311 270 -1
74 1 1 304 311 269 56
75 3 1 303 310 268 -1
76 4 1 303 311 268 -1
77 3 1 304 312 268 -1
78 3 1 304 313 268 -1
79 5 1 304 314 269 -1
80 6 1 303 315 268 -1
81 4 1 303 316 267 -1
82 2 1 302 317 267 -1
83 2 1 302 317 268 -1
84 2 1 302 318 268 -1
85 2 1 302 319 269 -1
86 2 1 303 319 269 -1
87 4 1 304 320 268 -1
88 2 1 303 320 267 -1
89 2 1 304 321 268 -1
90 2 1 305 321 269 -1
91 2 1 306 320 268 -1
92 2 1 305 319 267 -1
93 2 1 305 318 266 -1
94 2 1 304 317 267 -1
95 2 1 305 316 266 -1
96 2 1 305 315 266 -1
97 4 1 305 316 267 -1
98 2 1 306 316 267 -1
99 4 1 307 315 266 -1
100 0 2 153 164 439 101
101 1 2 152 163 440 100
102 2 2 151 162 439 -1
103 3 2 150 162 440 -1
104 4 2 149 163 441 -1
105 5 2 148 164 442 -1
106 0 2 148 165 442 -1
107 6 2 148 164 443 -1
108 3 2 147 165 444 -1
109 5 2 146 165 444 -1
110 1 2 147 166 444 -1
111 7 2 146 167 445 -1
112 8 2 147 167 446 -1
113 6 2 147 168 447 -1
114 9 2 148 169 447 -1
115 8 2 147 170 447 -1
116 6 2 146 171 448 -1
117 6 2 145 172 448 -1
118 6 2 144 173 447 -1
119 7 2 145 173 447 -1
120 3 2 144 172 448 -1
121 5 2 145 171 448 -1
122 7 2 145 171 449 -1
123 5 2 144 172 449 -1
124 1 2 144 172 450 -1
125 3 2 145 172 451 -1
126 4 2 145 171 450 -1
127 3 2 145 170 451 -1
128 3 2 145 170 450 -1
129 5 2 145 170 449 -1
130 6 2 146 169 449 -1
131 4 2 146 169 448 -1
132 2 2 147 169 449 -1
133 2 2 147 170 449 -1
134 2 2 147 171 450 -1
135 2 2 146 172 451 -1
136 2 2 145 171 451 -1
137 4 2 146 172 450 -1
138 2 2 147 173 450 -1
139 2 2 147 173 449 -1
140 2 2 147 172 448 -1
141 2 2 146 171 449 -1
142 2 2 146 172 449 -1
143 2 2 145 172 450 -1
144 2 2 146 173 451 -1
145 2 2 147 174 452 -1
146 2 2 148 175 452 -1
147 4 2 149 174 453 -1
148 2 2 149 173 453 -1
149 4 2 148 173 453 -1
150 0 3 276 24 323 -1
151 1 3 275 23 324 -1
152 2 3 275 23 323 -1
153 3 3 275 22 323 -1
154 4 3 276 23 322 -1
155 5 3 276 23 321 -1
156 0 3 275 23 320 -1
157 6 3 275 22 321 -1
158 3 3 275 22 322 -1
159 5 3 276 21 321 -1
160 1 3 276 21 320 -1
161 7 3 277 21 321 -1
162 8 3 278 22 320 -1
163 6 3 279 22 320 -1
164 9 3 279 21 320 -1
165 8 3 279 20 319 -1
166 6 3 279 20 320 -1
167 6 3 280 19 321 -1
168 6 3 280 18 321 -1
169 7 3 279 17 321 -1
170 3 3 280 17 320 -1
171 5 3 280 18 319 -1
172 7 3 280 17 319 -1
173 5 3 279 17 319 -1
174 1 3 278 18 318 -1
175 3 3 279 19 318 -1
176 4 3 278 20 317 -1
177 3 3 277 20 316 -1
178 3 3 276 21 315 -1
179 5 3 277 22 314 -1
180 6 3 278 23 313 -1
181 4 3 279 23 313 -1
182 2 3 278 24 314 -1
183 2 3 277 23 315 -1
184 2 3 277 23 316 -1
185 2 3 276 24 315 -1
186 2 3 275 23 316 -1
187 4 3 274 23 315 -1
188 2 3 274 22 315 -1
189 2 3 275 23 314 -1
190 2 3 274 23 314 -1
191 2 3 275 23 313 -1
192 2 3 276 23 312 -1
193 2 3 276 24 311 -1
194 2 3 275 24 312 -1
195 2 3 274 24 312 -1
196 2 3 274 25 311 -1
197 4 3 273 25 310 -1
198 2 3 273 26 311 -1
199 4 3 273 27 310 -1
200 0 4 321 371 26 -1
201 1 4 320 372 26 -1
202 2 4 320 371 26 -1
203 3 4 319 370 26 -1
204 4 4 318 369 27 -1
205 5 4 317 368 28 -1
206 0 4 318 368 28 210
207 6 4 319 368 28 -1
208 3 4 320 369 28 -1
209 5 4 319 369 28 -1
210 1 4 319 369 29 206
211 7 4 320 370 29 -1
212 8 4 321 370 28 -1
213 6 4 321 369 29 -1
214 9 4 321 369 30 -1
215 8 4 320 368 30 -1
216 6 4 319 367 31 -1
217 6 4 318 367 30 -1
218 6 4 318 368 31 -1
219 7 4 318 369 32 -1
220 3 4 317 370 32 -1
221 5 4 318 371 33 -1
222 7 4 319 371 34 -1
223 5 4 319 370 33 -1
224 1 4 318 370 33 -1
225 3 4 318 369 33 -1
226 4 4 317 370 34 -1
227 3 4 317 370 33 -1
228 3 4 317 369 32 -1
229 5 4 318 369 31 -1
230 6 4 318 369 30 -1
231 4 4 319 370 30 -1
232 2 4 318 371 29 -1
233 2 4 319 372 28 -1
234 2 4 320 372 29 -1
235 2 4 321 371 28 -1
236 2 4 321 372 29 -1
237 4 4 320 373 28 -1
238 2 4 321 374 28 -1
239 2 4 322 375 27 -1
240 2 4 322 374 27 -1
241 2 4 323 373 28 -1
242 2 4 324 374 29 -1
243 2 4 325 374 29 -1
244 2 4 325 374 30 -1
245 2 4 326 375 30 -1
246 2 4 325 374 31 -1
247 4 4 324 374 31 -1
248 2 4 323 373 32 -1
249 4 4 324 372 33 -1
250 0 5 115 94 24 251
251 1 5 115 93 25 250
252 2 5 116 92 25 -1
253 3 5 117 91 24 -1
254 4 5 117 92 24 -1
255 5 5 116 91 23 -1
256 0 5 116 91 24 -1
257 6 5 115 92 23 -1
258 3 5 114 92 22 -1
259 5 5 115 93 23 -1
260 1 5 114 94 23 -1
261 7 5 115 95 22 -1
262 8 5 116 95 23 -1
263 6 5 117 96 23 -1
264 9 5 117 96 24 -1
265 8 5 118 96 25 -1
266 6 5 118 96 24 -1
267 6 5 119 95 23 -1
268 6 5 119 94 24 -1
269 7 5 120 95 23 -1
270 3 5 120 96 22 -1
271 5 5 119 96 21 -1
272 7 5 118 96 20 -1
273 5 5 119 96 19 -1
274 1 5 120 96 19 -1
275 3 5 121 96 19 -1
276 4 5 121 97 20 -1
277 3 5 121 98 19 -1
278 3 5 120 99 18 -1
279 5 5 120 98 17 -1
280 6 5 119 97 17 -1
281 4 5 118 96 16 -1
282 2 5 117 96 15 -1
283 2 5 116 96 14 -1
284 2 5 115 97 13 -1
285 2 5 116 98 13 -1
286 2 5 115 99 13 -1
287 4 5 116 98 14 -1
288 2 5 117 99 15 -1
289 2 5 118 99 16 -1
290 2 5 118 98 16 -1
291 2 5 119 98 16 -1
292 2 5 119 98 17 -1
293 2 5 118 99 17 -1
294 2 5 117 99 17 -1
295 2 5 117 100 16 -1
296 2 5 116 101 17 -1
297 4 5 117 100 17 -1
298 2 5 118 100 16 -1
299 4 5 117 101 16 -1
300 0 6 184 274 34 -1
301 1 6 183 275 35 -1
302 2 6 183 276 34 -1
303 3 6 182 277 34 -1
304 4 6 183 278 34 -1
305 5 6 182 279 33 -1
306 0 6 182 279 32 310
307 6 6 183 280 33 -1
308 3 6 182 281 32 -1
309 5 6 181 280 33 -1
310 1 6 182 280 33 306
311 7 6 183 279 32 -1
312 8 6 184 279 31 -1
313 6 6 183 279 30 -1
314 9 6 184 280 29 -1
315 8 6 183 279 29 -1
316 6 6 184 278 28 -1
317 6 6 185 277 29 -1
318 6 6 185 278 30 -1
319 7 6 186 279 29 -1
320 3 6 185 279 30 -1
321 5 6 184 279 29 -1
322 7 6 183 278 30 -1
323 5 6 183 278 31 -1
324 1 6 183 277 30 -1
325 3 6 184 277 29 -1
326 4 6 184 276 28 -1
327 3 6 185 275 29 -1
328 3 6 186 275 29 -1
329 5 6 185 275 30 -1
330 6 6 186 276 30 -1
331 4 6 186 275 30 -1
332 2 6 186 274 30 -1
333 2 6 186 273 29 -1
334 2 6 186 273 30 -1
335 2 6 185 272 29 -1
336 2 6 184 272 30 -1
337 4 6 185 271 31 -1
338 2 6 185 272 30 -1
339 2 6 184 271 30 -1
340 2 6 184 272 31 -1
341 2 6 183 273 32 -1
342 2 6 182 274 32 -1
343 2 6 182 274 31 -1
344 2 6 183 274 32 -1
345 2 6 184 273 32 -1
346 2 6 184 274 33 -1
347 4 6 184 273 34 -1
348 2 6 184 272 35 -1
349 4 6 185 272 36 -1
350 0 7 12 336 372 351
351 1 7 13 337 371 350
352 2 7 13 338 372 -1
353 3 7 12 339 372 -1
354 4 7 13 340 373 -1
355 5 7 12 341 374 -1
356 0 7 11 342 375 360
357 6 7 12 343 375 -1
358 3 7 11 343 375 -1
359 5 7 11 343 374 -1
360 1 7 10 343 374 356
361 7 7 9 344 375 -1
362 8 7 9 343 374 -1
363 6 7 8 343 373 -1
364 9 7 9 342 374 -1
365 8 7 10 341 374 -1
366 6 7 9 341 375 -1
367 6 7 10 341 375 -1
368 6 7 9 341 376 -1
369 7 7 8 340 377 -1
370 3 7 8 339 378 -1
371 5 7 7 338 379 -1
372 7 7 8 338 380 -1
373 5 7 9 339 380 -1
374 1 7 10 338 380 -1
375 3 7 10 339 380 -1
376 4 7 9 340 379 -1
377 3 7 8 339 380 -1
378 3 7 7 339 380 -1
379 5 7 6 338 379 -1
380 6 7 5 338 379 -1
381 4 7 5 337 378 -1
382 2 7 4 336 378 -1
383 2 7 4 335 377 -1
384 2 7 3 334 378 -1
385 2 7 4 334 377 -1
386 2 7 5 333 376 -1
387 4 7 6 334 375 -1
388 2 7 6 333 374 -1
389 2 7 7 334 375 -1
390 2 7 8 333 374 -1
391 2 7 8 332 375 -1
392 2 7 7 333 374 -1
393 2 7 7 334 374 -1
394 2 7 7 333 375 -1
395 2 7 7 333 376 -1
396 2 7 8 333 375 -1
397 4 7 7 332 374 -1
398 2 7 7 333 373 -1
399 4 7 6 333 373 -1
400 0 8 103 328 485 401
401 1 8 104 328 485 400
402 2 8 104 327 484 -1
403 3 8 103 328 483 -1
404 4 8 104 328 484 -1
405 5 8 105 329 483 -1
406 0 8 104 329 484 -1
407 6 8 105 330 485 -1
408 3 8 106 330 486 -1
409 5 8 107 329 487 -1
410 1 8 106 330 488 -1
411 7 8 107 331 489 -1
412 8 8 106 332 490 -1
413 6 8 106 333 489 -1
414 9 8 105 334 489 -1
415 8 8 106 334 490 -1
416 6 8 105 333 489 -1
417 6 8 104 334 490 -1
418 6 8 104 335 489 -1
419 7 8 103 336 488 -1
420 3 8 102 336 488 -1
421 5 8 103 336 489 -1
422 7 8 103 335 490 -1
423 5 8 103 336 491 -1
424 1 8 104 336 492 -1
425 3 8 105 336 493 -1
426 4 8 104 337 494 -1
427 3 8 104 336 495 -1
428 3 8 105 337 495 -1
429 5 8 104 338 494 -1
430 6 8 103 337 494 -1
431 4 8 104 338 493 -1
432 2 8 103 338 492 -1
433 2 8 102 337 493 -1
434 2 8 101 337 492 -1
435 2 8 101 336 492 -1
436 2 8 100 335 491 -1
437 4 8 101 336 491 -1
438 2 8 100 336 492 -1
439 2 8 101 337 493 -1
440 2 8 101 337 494 -1
441 2 8 102 337 495 -1
442 2 8 101 337 496 -1
443 2 8 100 338 496 -1
444 2 8 101 337 497 -1
445 2 8 100 336 498 -1
446 2 8 99 335 499 -1
447 4 8 99 334 498 -1
448 2 8 99 335 498 -1
449 4 8 99 334 497 -1
450 0 9 92 199 111 451
451 1 9 91 198 110 450
452 2 9 90 197 109 -1
453 3 9 90 198 108 -1
454 4 9 90 198 107 -1
455 5 9 89 198 107 -1
456 0 9 90 197 108 -1
457 6 9 91 197 107 -1
458 3 9 90 198 106 -1
459 5 9 89 199 107 -1
460 1 9 88 200 108 -1
461 7 9 87 200 108 -1
462 8 9 87 201 108 -1
463 6 9 86 200 108 -1
464 9 9 85 200 107 -1
465 8 9 84 201 106 -1
466 6 9 84 200 106 -1
467 6 9 85 200 106 -1
468 6 9 84 200 107 -1
469 7 9 83 199 107 -1
470 3 9 82 199 108 -1
471 5 9 83 198 108 -1
472 7 9 83 198 107 -1
473 5 9 83 197 107 -1
474 1 9 84 196 106 -1
475 3 9 84 195 105 -1
476 4 9 83 196 104 -1
477 3 9 84 196 103 -1
478 3 9 83 195 104 -1
479 5 9 82 194 105 -1
480 6 9 83 194 106 -1
481 4 9 83 193 107 -1
482 2 9 82 194 106 -1
483 2 9 82 195 107 -1
484 2 9 82 196 106 -1
485 2 9 81 197 106 -1
486 2 9 82 197 107 -1
487 4 9 82 197 108 -1
488 2 9 81 196 109 -1
489 2 9 80 196 108 -1
490 2 9 79 197 109 -1
491 2 9 78 198 108 -1
492 2 9 77 197 107 -1
493 2 9 78 197 106 -1
494 2 9 79 198 106 -1
495 2 9 80 199 105 -1
496 2 9 80 199 104 -1
497 4 9 79 198 104 -1
498 2 9 80 197 104 -1
499 4 9 81 197 104 -1
500 0 10 124 73 54 -1
501 1 10 123 74 53 506
502 2 10 124 75 54 -1
503 3 10 123 75 55 -1
504 4 10 124 76 54 -1
505 5 10 123 76 54 -1
506 0 10 123 75 54 501
507 6 10 122 74 54 -1
508 3 10 123 73 54 -1
509 5 10 124 74 53 -1
510 1 10 124 75 52 -1
511 7 10 125 76 53 -1
512 8 10 124 76 52 -1
513 6 10 124 76 51 -1
514 9 10 125 77 50 -1
515 8 10 126 76 49 -1
516 6 10 126 76 48 -1
517 6 10 127 77 48 -1
518 6 10 126 78 49 -1
519 7 10 126 77 48 -1
520 3 10 127 77 49 -1
521 5 10 126 77 49 -1
522 7 10 126 77 50 -1
523 5 10 125 77 51 -1
524 1 10 126 76 50 -1
525 3 10 125 76 50 -1
526 4 10 124 77 49 -1
527 3 10 125 77 48 -1
528 3 10 124 76 48 -1
529 5 10 123 75 49 -1
530 6 10 122 76 50 -1
531 4 10 121 75 51 -1
532 2 10 120 76 50 -1
533 2 10 120 75 50 -1
534 2 10 121 74 49 -1
535 2 10 121 74 48 -1
536 2 10 120 74 47 -1
537 4 10 121 74 46 -1
538 2 10 121 73 45 -1
539 2 10 120 74 46 -1
540 2 10 120 73 47 -1
541 2 10 119 72 46 -1
542 2 10 120 71 47 -1
543 2 10 121 71 47 -1
544 2 10 121 70 47 -1
545 2 10 122 70 46 -1
546 2 10 123 70 46 -1
547 4 10 123 69 46 -1
548 2 10 122 69 46 -1
549 4 10 122 69 47 -1
550 0 11 443 367 236 551
551 1 11 444 368 235 550
552 2 11 443 367 235 -1
553 3 11 444 367 235 -1
554 4 11 443 366 236 -1
555 5 11 442 366 236 -1
556 0 11 443 365 235 560
557 6 11 442 366 234 -1
558 3 11 443 366 233 -1
559 5 11 443 365 233 -1
560 1 11 443 365 234 556
561 7 11 444 364 234 -1
562 8 11 444 363 234 -1
563 6 11 443 362 234 -1
564 9 11 444 362 233 -1
565 8 11 444 361 232 -1
566 6 11 443 360 233 -1
567 6 11 443 361 233 -1
568 6 11 442 361 234 -1
569 7 11 443 362 233 -1
570 3 11 444 363 233 -1
571 5 11 445 362 233 -1
572 7 11 444 361 234 -1
573 5 11 445 361 235 -1
574 1 11 446 360 234 -1
575 3 11 445 359 233 -1
576 4 11 444 358 234 -1
577 3 11 444 358 233 -1
578 3 11 443 357 233 -1
579 5 11 443 358 233 -1
580 6 11 443 357 234 -1
581 4 11 443 356 234 -1
582 2 11 444 355 235 -1
583 2 11 444 354 236 -1
584 2 11 445 355 236 -1
585 2 11 446 356 237 -1
586 2 11 447 357 237 -1
587 4 11 448 358 238 -1
588 2 11 447 358 239 -1
589 2 11 448 359 238 -1
590 2 11 449 360 239 -1
591 2 11 448 361 240 -1
592 2 11 447 362 240 -1
593 2 11 446 362 239 -1
594 2 11 446 362 240 -1
595 2 11 445 362 240 -1
596 2 11 444 361 240 -1
597 4 11 445 362 239 -1
598 2 11 444 362 238 -1
599 4 11 443 361 239 -1
600 0 12 218 221 301 601
601 1 12 217 220 302 600
602 2 12 218 221 302 -1
603 3 12 219 222 301 -1
604 4 12 218 222 301 -1
605 5 12 217 221 301 -1
606 0 12 217 221 300 610
607 6 12 216 222 300 -1
608 3 12 217 222 300 -1
609 5 12 218 223 300 -1
610 1 12 218 222 300 606
611 7 12 219 222 300 -1
612 8 12 219 221 299 -1
613 6 12 220 222 300 -1
614 9 12 221 222 300 -1
615 8 12 221 222 301 -1
616 6 12 220 223 302 -1
617 6 12 219 224 302 -1
618 6 12 219 223 302 -1
619 7 12 220 222 302 -1
620 3 12 220 222 301 -1
621 5 12 219 221 302 -1
622 7 12 220 220 301 -1
623 5 12 221 221 301 -1
624 1 12 222 222 302 -1
625 3 12 222 221 303 -1
626 4 12 221 222 302 -1
627 3 12 220 223 303 -1
628 3 12 219 223 304 -1
629 5 12 220 223 304 -1
630 6 12 219 224 303 -1
631 4 12 218 223 303 -1
632 2 12 218 222 303 -1
633 2 12 219 221 304 -1
634 2 12 218 220 304 -1
635 2 12 218 221 304 -1
636 2 12 219 220 304 -1
637 4 12 220 219 303 -1
638 2 12 221 218 303 -1
639 2 12 222 217 302 -1
640 2 12 223 217 301 -1
641 2 12 222 216 300 -1
642 2 12 223 217 299 -1
643 2 12 224 216 299 -1
644 2 12 224 215 299 -1
645 2 12 225 216 298 -1
646 2 12 225 216 297 -1
647 4 12 224 216 297 -1
648 2 12 225 217 297 -1
649 4 12 226 218 296 -1
650 0 13 189 64 246 -1
651 1 13 189 63 246 -1
652 2 13 188 62 245 -1
653 3 13 189 61 244 -1
654 4 13 188 61 244 -1
655 5 13 188 61 245 -1
656 0 13 187 62 244 660
657 6 13 186 62 243 -1
658 3 13 185 61 244 -1
659 5 13 186 60 245 -1
660 1 13 186 61 245 656
661 7 13 186 60 244 -1
662 8 13 185 61 245 -1
663 6 13 186 61 244 -1
664 9 13 185 60 243 -1
665 8 13 185 61 242 -1
666 6 13 185 60 242 -1
667 6 13 184 61 243 -1
668 6 13 184 62 243 -1
669 7 13 184 63 244 -1
670 3 13 185 64 243 -1
671 5 13 184 63 242 -1
672 7 13 185 63 242 -1
673 5 13 185 64 241 -1
674 1 13 184 65 241 -1
675 3 13 185 66 240 -1
676 4 13 185 65 240 -1
677 3 13 185 65 241 -1
678 3 13 185 65 242 -1
679 5 13 185 66 243 -1
680 6 13 186 66 244 -1
681 4 13 187 65 244 -1
682 2 13 187 66 244 -1
683 2 13 188 67 244 -1
684 2 13 189 66 243 -1
685 2 13 190 66 244 -1
686 2 13 190 67 244 -1
687 4 13 190 68 243 -1
688 2 13 190 69 242 -1
689 2 13 190 70 242 -1
690 2 13 191 71 241 -1
691 2 13 191 72 242 -1
692 2 13 190 72 241 -1
693 2 13 189 73 242 -1
694 2 13 188 72 241 -1
695 2 13 187 71 242 -1
696 2 13 186 71 241 -1
697 4 13 185 72 241 -1
698 2 13 184 72 240 -1
699 4 13 183 71 241 -1
700 0 14 410 45 255 701
701 1 14 409 44 255 700
702 2 14 408 45 256 -1
703 3 14 407 44 257 -1
704 4 14 407 44 258 -1
705 5 14 406 44 259 -1
706 0 14 407 44 260 710
707 6 14 407 44 259 -1
708 3 14 407 43 260 -1
709 5 14 408 44 260 -1
710 1 14 408 43 259 706
711 7 14 408 42 259 -1
712 8 14 407 41 259 -1
713 6 14 406 40 260 -1
714 9 14 406 39 259 -1
715 8 14 405 39 258 -1
716 6 14 406 40 257 -1
717 6 14 407 40 257 -1
718 6 14 406 39 256 -1
719 7 14 406 38 257 -1
720 3 14 407 37 258 -1
721 5 14 407 37 257 -1
722 7 14 408 36 256 -1
723 5 14 407 36 255 -1
724 1 14 406 36 254 -1
725 3 14 406 37 254 -1
726 4 14 407 38 254 -1
727 3 14 406 39 254 -1
728 3 14 405 39 255 -1
729 5 14 405 40 255 -1
730 6 14 404 40 255 -1
731 4 14 405 41 255 -1
732 2 14 406 40 256 -1
733 2 14 407 41 256 -1
734 2 14 408 42 255 -1
735 2 14 407 42 255 -1
736 2 14 406 42 256 -1
737 4 14 405 42 256 -1
738 2 14 405 43 257 -1
739 2 14 404 43 256 -1
740 2 14 403 42 255 -1
741 2 14 404 42 256 -1
742 2 14 404 42 255 -1
743 2 14 403 43 255 -1
744 2 14 404 44 256 -1
745 2 14 403 43 256 -1
746 2 14 402 43 257 -1
747 4 14 402 44 258 -1
748 2 14 401 45 259 -1
749 4 14 401 44 260 -1
750 0 15 181 117 41 751
751 1 15 182 118 42 750
752 2 15 181 117 43 -1
753 3 15 181 118 43 -1
754 4 15 180 118 44 -1
755 5 15 180 117 43 -1
756 0 15 179 118 42 760
757 6 15 179 117 41 -1
758 3 15 180 118 42 -1
759 5 15 180 119 42 -1
760 1 15 179 118 41 756
761 7 15 180 118 40 -1
762 8 15 180 117 39 -1
763 6 15 181 116 38 -1
764 9 15 180 115 38 -1
765 8 15 181 114 37 -1
766 6 15 181 115 36 -1
767 6 15 182 114 37 -1
768 6 15 183 113 38 -1
769 7 15 182 114 39 -1
770 3 15 182 113 39 -1
771 5 15 183 112 38 -1
772 7 15 184 113 38 -1
773 5 15 183 113 39 -1
774 1 15 183 114 40 -1
775 3 15 183 114 39 -1
776 4 15 184 113 39 -1
777 3 15 185 112 38 -1
778 3 15 184 111 37 -1
779 5 15 183 111 36 -1
780 6 15 182 111 35 -1
781 4 15 183 111 34 -1
782 2 15 183 110 34 -1
783 2 15 184 109 35 -1
784 2 15 185 109 35 -1
785 2 15 186 108 35 -1
786 2 15 185 109 34 -1
787 4 15 184 110 33 -1
788 2 15 184 110 34 -1
789 2 15 184 109 33 -1
790 2 15 183 109 34 -1
791 2 15 183 109 33 -1
792 2 15 184 109 34 -1
793 2 15 183 108 34 -1
794 2 15 183 108 33 -1
795 2 15 183 107 34 -1
796 2 15 183 106 35 -1
797 4 15 184 107 36 -1
798 2 15 185 107 35 -1
799 4 15 186 106 35 -1
800 0 16 119 464 256 801
801 1 16 119 463 255 800
802 2 16 120 464 254 -1
803 3 16 119 464 253 -1
804 4 16 118 465 252 -1
805 5 16 119 464 251 -1
806 0 16 120 463 251 810
807 6 16 120 462 250 -1
808 3 16 119 461 250 -1
809 5 16 120 461 251 -1
810 1 16 119 462 250 806
811 7 16 119 461 249 -1
812 8 16 120 462 248 -1
813 6 16 121 463 247 -1
814 9 16 121 464 246 -1
815 8 16 121 465 245 -1
816 6 16 121 466 244 -1
817 6 16 120 466 244 -1
818 6 16 120 467 244 -1
819 7 16 120 466 245 -1
820 3 16 120 467 245 -1
821 5 16 121 466 246 -1
822 7 16 122 467 246 -1
823 5 16 121 467 246 -1
824 1 16 122 468 245 -1
825 3 16 121 469 245 -1
826 4 16 121 469 244 -1
827 3 16 122 468 243 -1
828 3 16 121 467 242 -1
829 5 16 122 467 243 -1
830 6 16 123 466 244 -1
831 4 16 122 465 243 -1
832 2 16 121 466 243 -1
833 2 16 122 467 244 -1
834 2 16 123 468 243 -1
835 2 16 124 467 243 -1
836 2 16 124 466 243 -1
837 4 16 125 466 244 -1
838 2 16 126 466 245 -1
839 2 16 127 467 244 -1
840 2 16 127 468 243 -1
841 2 16 128 467 242 -1
842 2 16 129 468 243 -1
843 2 16 128 467 243 -1
844 2 16 127 466 243 -1
845 2 16 126 465 242 -1
846 2 16 127 464 241 -1
847 4 16 128 464 241 -1
848 2 16 129 465 240 -1
849 4 16 130 466 239 -1
850 0 17 360 433 387 -1
851 1 17 359 433 388 -1
852 2 17 358 433 388 -1
853 3 17 358 432 389 -1
854 4 17 358 431 390 -1
855 5 17 357 432 391 -1
856 0 17 357 431 390 -1
857 6 17 358 431 391 -1
858 3 17 357 431 391 -1
859 5 17 356 432 392 -1
860 1 17 355 432 391 -1
861 7 17 354 433 392 -1
862 8 17 355 434 393 -1
863 6 17 356 435 393 -1
864 9 17 356 434 393 -1
865 8 17 357 434 394 -1
866 6 17 356 434 395 -1
867 6 17 356 435 396 -1
868 6 17 355 436 396 -1
869 7 17 356 436 397 -1
870 3 17 357 436 396 -1
871 5 17 358 435 396 -1
872 7 17 357 436 397 -1
873 5 17 358 437 398 -1
874 1 17 357 436 398 -1
875 3 17 358 436 399 -1
876 4 17 357 437 400 -1
877 3 17 356 438 400 -1
878 3 17 356 439 399 -1
879 5 17 357 438 399 -1
880 6 17 356 439 398 -1
881 4 17 356 440 398 -1
882 2 17 357 441 398 -1
883 2 17 358 441 399 -1
884 2 17 358 440 400 -1
885 2 17 359 441 399 -1
886 2 17 358 442 399 -1
887 4 17 359 443 398 -1
888 2 17 358 444 399 -1
889 2 17 357 445 400 -1
890 2 17 356 445 399 -1
891 2 17 355 446 399 -1
892 2 17 354 445 399 -1
893 2 17 355 444 400 -1
894 2 17 354 443 401 -1
895 2 17 353 444 400 -1
896 2 17 353 444 399 -1
897 4 17 352 445 400 -1
898 2 17 351 444 399 -1
899 4 17 352 443 399 -1
900 0 18 290 154 77 924
901 1 18 291 154 78 -1
902 2 18 291 153 77 -1
903 3 18 291 153 76 -1
904 4 18 291 152 75 -1
905 5 18 290 153 75 -1
906 0 18 289 153 76 910
907 6 18 290 153 77 -1
908 3 18 289 154 77 -1
909 5 18 290 154 76 -1
910 1 18 290 154 75 906
911 7 18 291 155 75 -1
912 8 18 292 156 75 -1
913 6 18 291 157 76 -1
914 9 18 290 157 77 -1
915 8 18 289 158 77 -1
916 6 18 290 159 77 -1
917 6 18 291 158 77 -1
918 6 18 292 158 78 -1
919 7 18 293 159 77 -1
920 3 18 293 158 78 -1
921 5 18 293 157 78 -1
922 7 18 292 157 77 -1
923 5 18 292 156 76 -1
924 1 18 291 155 76 900
925 3 18 290 156 76 -1
926 4 18 290 156 77 -1
927 3 18 289 155 78 -1
928 3 18 289 154 79 -1
929 5 18 290 154 80 -1
930 6 18 290 154 81 -1
931 4 18 291 154 81 -1
932 2 18 292 154 80 -1
933 2 18 292 154 79 -1
934 2 18 291 153 79 -1
935 2 18 292 153 80 -1
936 2 18 293 154 81 -1
937 4 18 294 154 80 -1
938 2 18 295 153 79 -1
939 2 18 295 154 78 -1
940 2 18 295 153 77 -1
941 2 18 296 152 77 -1
942 2 18 297 153 77 -1
943 2 18 296 152 78 -1
944 2 18 296 151 77 -1
945 2 18 297 150 78 -1
946 2 18 298 151 78 -1
947 4 18 297 151 78 -1
948 2 18 296 152 79 -1
949 4 18 295 153 80 -1
950 0 19 378 276 416 951
951 1 19 379 276 416 950
952 2 19 380 275 417 -1
953 3 19 381 276 416 -1
954 4 19 381 276 417 -1
955 5 19 380 277 418 -1
956 0 19 381 277 418 -1
957 6 19 382 276 417 -1
958 3 19 383 277 418 -1
959 5 19 382 278 419 -1
960 1 19 382 278 420 -1
961 7 19 383 278 419 -1
962 8 19 383 279 418 -1
963 6 19 383 280 418 -1
964 9 19 382 280 418 -1
965 8 19 383 280 417 -1
966 6 19 384 279 417 -1
967 6 19 385 279 416 -1
968 6 19 386 278 417 -1
969 7 19 385 277 416 -1
970 3 19 384 277 417 -1
971 5 19 383 276 416 -1
972 7 19 382 277 416 -1
973 5 19 381 278 415 -1
974 1 19 380 279 414 -1
975 3 19 380 279 413 -1
976 4 19 380 280 414 -1
977 3 19 379 279 413 -1
978 3 19 380 279 412 -1
979 5 19 380 278 413 -1
980 6 19 379 278 414 -1
981 4 19 378 278 414 -1
982 2 19 379 277 415 -1
983 2 19 379 278 415 -1
984 2 19 378 277 414 -1
985 2 19 377 277 414 -1
986 2 19 376 276 414 -1
987 4 19 375 275 413 -1
988 2 19 374 274 414 -1
989 2 19 375 274 414 -1
990 2 19 374 274 415 -1
991 2 19 373 275 416 -1
992 2 19 372 275 416 -1
993 2 19 371 274 415 -1
994 2 19 371 273 414 -1
995 2 19 372 272 415 -1
996 2 19 372 271 415 -1
997 4 19 372 271 416 -1
998 2 19 371 272 415 -1
999 4 19 370 272 415 -1
1000 0 20 172 292 495 1001
1001 1 20 172 292 496 1000
1002 2 20 171 292 495 -1
1003 3 20 171 293 494 -1
1004 4 20 170 294 495 -1
1005 5 20 169 293 496 -1
1006 0 20 170 292 496 1010
1007 6 20 170 293 496 -1
1008 3 20 170 292 497 -1
1009 5 20 170 291 498 -1
1010 1 20 170 291 497 1006
1011 7 20 171 290 497 -1
1012 8 20 170 290 498 -1
1013 6 20 170 290 499 -1
1014 9 20 169 289 498 -1
1015 8 20 168 288 498 -1
1016 6 20 167 287 497 -1
1017 6 20 168 288 496 -1
1018 6 20 167 289 495 -1
1019 7 20 168 289 495 -1
1020 3 20 169 290 496 -1
1021 5 20 168 290 496 -1
1022 7 20 168 290 495 -1
1023 5 20 169 289 494 -1
1024 1 20 170 290 493 -1
1025 3 20 171 290 494 -1
1026 4 20 172 290 495 -1
1027 3 20 173 290 494 -1
1028 3 20 174 289 494 -1
1029 5 20 175 289 495 -1
1030 6 20 175 290 495 -1
1031 4 20 175 291 495 -1
1032 2 20 175 291 496 -1
1033 2 20 174 291 495 -1
1034 2 20 174 290 494 -1
1035 2 20 175 290 493 -1
1036 2 20 175 289 493 -1
1037 4 20 176 290 493 -1
1038 2 20 177 290 494 -1
1039 2 20 176 291 493 -1
1040 2 20 177 291 494 -1
1041 2 20 177 291 493 -1
1042 2 20 178 290 494 -1
1043 2 20 178 289 494 -1
1044 2 20 177 288 493 -1
1045 2 20 178 289 492 -1
1046 2 20 178 290 491 -1
1047 4 20 179 290 491 -1
1048 2 20 178 289 490 -1
1049 4 20 179 288 491 -1
1050 0 21 369 45 396 1051
1051 1 21 369 44 396 1050
1052 2 21 369 45 395 -1
1053 3 21 369 46 394 -1
1054 4 21 369 47 394 -1
1055 5 21 370 47 393 -1
1056 0 21 370 48 392 -1
1057 6 21 369 48 392 -1
1058 3 21 370 49 393 -1
1059 5 21 371 50 394 -1
1060 1 21 372 49 393 -1
1061 7 21 373 50 394 -1
1062 8 21 374 50 394 -1
1063 6 21 373 49 393 -1
1064 9 21 372 50 393 -1
1065 8 21 373 51 392 -1
1066 6 21 372 52 391 -1
1067 6 21 372 51 390 -1
1068 6 21 372 52 390 -1
1069 7 21 371 52 389 -1
1070 3 21 370 53 389 -1
1071 5 21 369 52 388 -1
1072 7 21 368 52 388 -1
1073 5 21 368 53 388 -1
1074 1 21 369 53 387 -1
1075 3 21 368 52 387 -1
1076 4 21 367 53 387 -1
1077 3 21 368 54 387 -1
1078 3 21 369 55 386 -1
1079 5 21 369 56 385 -1
1080 6 21 368 57 384 -1
1081 4 21 368 57 383 -1
1082 2 21 368 56 382 -1
1083 2 21 368 56 383 -1
1084 2 21 367 55 382 -1
1085 2 21 368 54 382 -1
1086 2 21 367 55 383 -1
1087 4 21 367 54 383 -1
1088 2 21 366 55 382 -1
1089 2 21 365 54 382 -1
1090 2 21 364 55 381 -1
1091 2 21 363 55 382 -1
1092 2 21 363 54 382 -1
1093 2 21 364 55 383 -1
1094 2 21 363 56 382 -1
1095 2 21 362 55 383 -1
1096 2 21 361 55 382 -1
1097 4 21 361 56 382 -1
1098 2 21 362 57 381 -1
1099 4 21 363 56 381 -1
1100 0 22 347 70 67 1101
1101 1 22 348 70 68 1100
1102 2 22 348 70 67 -1
1103 3 22 347 71 67 -1
1104 4 22 347 71 68 -1
1105 5 22 347 72 68 -1
1106 0 22 346 73 69 1110
1107 6 22 347 74 69 -1
1108 3 22 346 73 70 -1
1109 5 22 345 74 69 -1
1110 1 22 346 73 68 1106
1111 7 22 346 74 68 -1
1112 8 22 347 73 68 -1
1113 6 22 346 73 67 -1
1114 9 22 346 72 66 -1
1115 8 22 345 73 67 -1
1116 6 22 344 74 67 -1
1117 6 22 344 75 68 -1
1118 6 22 344 76 67 -1
1119 7 22 344 77 68 -1
1120 3 22 345 76 67 -1
1121 5 22 346 75 68 -1
1122 7 22 346 76 69 -1
1123 5 22 345 76 68 -1
1124 1 22 346 75 69 -1
1125 3 22 345 76 69 -1
1126 4 22 346 76 70 -1
1127 3 22 347 77 70 -1
1128 3 22 347 77 71 -1
1129 5 22 346 78 70 -1
1130 6 22 346 77 70 -1
1131 4 22 347 78 70 -1
1132 2 22 347 79 69 -1
1133 2 22 346 79 68 -1
1134 2 22 345 80 67 -1
1135 2 22 345 80 66 -1
1136 2 22 346 80 67 -1
1137 4 22 347 81 68 -1
1138 2 22 348 80 68 -1
1139 2 22 348 79 69 -1
1140 2 22 348 79 68 -1
1141 2 22 347 80 67 -1
1142 2 22 348 81 68 -1
1143 2 22 348 82 67 -1
1144 2 22 347 82 66 -1
1145 2 22 346 82 65 -1
1146 2 22 347 81 65 -1
1147 4 22 347 80 66 -1
1148 2 22 347 81 66 -1
1149 4 22 346 80 65 -1
1150 0 23 19 376 15 1151
1151 1 23 18 377 14 1150
1152 2 23 19 377 13 -1
1153 3 23 19 377 14 -1
1154 4 23 20 378 14 -1
1155 5 23 21 379 15 -1
1156 0 23 20 380 16 1160
1157 6 23 20 381 16 -1
1158 3 23 20 381 15 -1
1159 5 23 20 382 16 -1
1160 1 23 19 381 16 1156
1161 7 23 18 380 15 -1
1162 8 23 18 381 14 -1
1163 6 23 19 381 13 -1
1164 9 23 20 380 14 -1
1165 8 23 19 379 13 -1
1166 6 23 18 379 12 -1
1167 6 23 17 378 13 -1
1168 6 23 17 379 12 -1
1169 7 23 18 380 11 -1
1170 3 23 19 380 12 -1
1171 5 23 20 381 13 -1
1172 7 23 21 380 14 -1
1173 5 23 20 381 14 -1
1174 1 23 19 382 13 -1
1175 3 23 18 381 12 -1
1176 4 23 17 382 12 -1
1177 3 23 18 382 12 -1
1178 3 23 18 383 11 -1
1179 5 23 19 382 11 -1
1180 6 23 20 383 12 -1
1181 4 23 20 384 11 -1
1182 2 23 20 385 10 -1
1183 2 23 19 385 10 -1
1184 2 23 20 386 9 -1
1185 2 23 21 387 10 -1
1186 2 23 21 386 9 -1
1187 4 23 21 387 8 -1
1188 2 23 21 388 8 -1
1189 2 23 22 389 7 -1
1190 2 23 23 389 6 -1
1191 2 23 22 390 6 -1
1192 2 23 23 389 5 -1
1193 2 23 23 388 6 -1
1194 2 23 24 388 5 -1
1195 2 23 25 388 6 -1
1196 2 23 26 389 5 -1
1197 4 23 26 390 6 -1
1198 2 23 27 389 5 -1
1199 4 23 27 390 5 -1
1200 0 24 242 272 161 1201
1201 1 24 243 272 160 1200
1202 2 24 243 273 159 -1
1203 3 24 244 273 159 -1
1204 4 24 244 272 160 -1
1205 5 24 245 272 160 -1
1206 0 24 246 271 160 -1
1207 6 24 247 271 159 -1
1208 3 24 246 270 160 -1
1209 5 24 247 270 159 -1
1210 1 24 246 271 159 -1
1211 7 24 246 271 158 -1
1212 8 24 245 270 157 -1
1213 6 24 245 270 156 -1
1214 9 24 246 270 157 -1
1215 8 24 246 271 157 -1
1216 6 24 246 270 156 -1
1217 6 24 245 269 157 -1
1218 6 24 246 268 156 -1
1219 7 24 247 269 155 -1
1220 3 24 247 270 154 -1
1221 5 24 247 271 155 -1
1222 7 24 248 271 154 -1
1223 5 24 247 271 154 -1
1224 1 24 248 271 155 -1
1225 3 24 247 270 156 -1
1226 4 24 248 269 156 -1
1227 3 24 249 270 157 -1
1228 3 24 250 270 156 -1
1229 5 24 251 269 157 -1
1230 6 24 251 270 157 -1
1231 4 24 252 271 156 -1
1232 2 24 253 270 157 -1
1233 2 24 254 269 156 -1
1234 2 24 254 269 155 -1
1235 2 24 254 268 155 -1
1236 2 24 253 269 154 -1
1237 4 24 253 270 153 -1
1238 2 24 254 269 153 -1
1239 2 24 254 270 153 -1
1240 2 24 253 271 154 -1
1241 2 24 254 272 153 -1
1242 2 24 254 271 153 -1
1243 2 24 253 272 153 -1
1244 2 24 253 273 152 -1
1245 2 24 252 274 152 -1
1246 2 24 253 275 153 -1
1247 4 24 252 274 154 -1
1248 2 24 251 274 154 -1
1249 4 24 252 274 155 -1
1250 0 25 143 102 249 1251
1251 1 25 142 102 248 1250
1252 2 25 143 101 248 -1
1253 3 25 143 100 249 -1
1254 4 25 142 100 250 -1
1255 5 25 141 99 250 -1
1256 0 25 140 100 251 1260
1257 6 25 140 100 250 -1
1258 3 25 140 101 251 -1
1259 5 25 139 100 250 -1
1260 1 25 140 101 250 1256
1261 7 25 141 102 249 -1
1262 8 25 140 103 249 -1
1263 6 25 141 104 250 -1
1264 9 25 140 103 250 -1
1265 8 25 140 104 249 -1
1266 6 25 139 105 248 -1
1267 6 25 139 105 249 -1
1268 6 25 139 106 250 -1
1269 7 25 138 106 249 -1
1270 3 25 137 105 248 -1
1271 5 25 136 105 247 -1
1272 7 25 136 104 247 -1
1273 5 25 135 105 248 -1
1274 1 25 135 104 249 -1
1275 3 25 135 103 249 -1
1276 4 25 136 104 250 -1
1277 3 25 137 103 249 -1
1278 3 25 138 103 249 -1
1279 5 25 139 103 248 -1
1280 6 25 140 104 247 -1
1281 4 25 139 104 247 -1
1282 2 25 139 104 246 -1
1283 2 25 138 103 245 -1
1284 2 25 138 104 245 -1
1285 2 25 139 104 245 -1
1286 2 25 139 103 244 -1
1287 4 25 139 104 243 -1
1288 2 25 140 105 242 -1
1289 2 25 141 104 242 -1
1290 2 25 140 104 242 -1
1291 2 25 141 104 243 -1
1292 2 25 141 103 243 -1
1293 2 25 142 103 244 -1
1294 2 25 142 102 245 -1
1295 2 25 141 102 244 -1