ITEM: TIMESTEP
0
ITEM: NUMBER OF ATOMS
10000
ITEM: BOX BOUNDS pp pp pp
0 200
0 200
0 200
ITEM: ATOMS id type mol x y z bP
0 0 0 150 141 15 -1
1 0 0 149 140 16 -1
2 0 0 150 139 16 -1
3 0 0 149 138 15 16
4 0 0 148 138 14 -1
5 0 0 149 139 14 18
6 0 0 150 138 13 15
7 0 0 150 138 14 17
8 0 0 150 139 15 19
9 0 0 151 138 16 10
10 1 0 152 137 16 9
11 1 0 153 137 15 -1
12 1 0 154 137 16 -1
13 1 0 153 136 15 -1
14 1 0 152 136 15 -1
15 1 0 151 137 14 6
16 1 0 150 137 15 3
17 1 0 151 138 14 7
18 1 0 150 138 15 5
19 1 0 149 139 15 8
20 0 1 55 17 52 39
21 0 1 56 17 52 -1
22 0 1 57 17 53 37
23 0 1 57 16 54 33
24 0 1 58 17 54 35
25 0 1 58 17 55 -1
26 0 1 57 16 55 34
27 0 1 56 15 56 32
28 0 1 57 16 56 30
29 0 1 57 17 57 -1
30 1 1 56 16 57 28
31 1 1 56 15 57 -1
32 1 1 57 14 56 27
33 1 1 58 15 55 23
34 1 1 57 15 55 26
35 1 1 58 16 54 24
36 1 1 57 16 53 -1
37 1 1 58 16 52 22
38 1 1 57 16 52 -1
39 1 1 56 17 51 20
40 0 2 115 155 149 51
41 0 2 116 156 149 52
42 0 2 115 156 148 58
43 0 2 115 156 149 55
44 0 2 114 156 149 -1
45 0 2 113 156 149 -1
46 0 2 114 156 148 53
47 0 2 114 155 149 56
48 0 2 114 154 148 50
49 0 2 113 154 149 -1
50 1 2 114 154 149 48
51 1 2 115 155 148 40
52 1 2 116 156 148 41
53 1 2 115 156 147 46
54 1 2 116 155 148 -1
55 1 2 116 155 149 43
56 1 2 115 154 149 47
57 1 2 115 154 148 -1
58 1 2 115 155 147 42
59 1 2 114 154 146 -1
60 0 3 168 141 198 78
61 0 3 167 141 199 75
62 0 3 166 141 199 74
63 0 3 165 140 199 73
64 0 3 165 141 199 72
65 0 3 164 141 199 70
66 0 3 163 141 199 -1
67 0 3 164 140 199 -1
68 0 3 165 140 198 76
69 0 3 164 140 198 71
70 1 3 163 140 198 65
71 1 3 164 141 198 69
72 1 3 165 141 198 64
73 1 3 166 140 198 63
74 1 3 167 140 198 62
75 1 3 167 141 198 61
76 1 3 166 141 198 68
77 1 3 167 140 197 -1
78 1 3 168 140 198 60
79 1 3 169 141 197 -1
80 0 4 133 6 116 99
81 0 4 134 5 115 -1
82 0 4 135 4 116 97
83 0 4 134 4 116 94
84 0 4 134 4 117 93
85 0 4 134 3 118 92
86 0 4 133 3 119 -1
87 0 4 133 2 120 -1
88 0 4 134 2 121 -1
89 0 4 134 3 120 90
90 1 4 134 4 119 89
91 1 4 134 4 120 -1
92 1 4 134 3 119 85
93 1 4 133 3 118 84
94 1 4 134 3 117 83
95 1 4 133 3 116 -1
96 1 4 134 3 116 -1
97 1 4 134 4 115 82
98 1 4 133 5 116 -1
99 1 4 133 6 115 80
100 0 5 159 96 175 -1
101 0 5 158 96 176 -1
102 0 5 159 95 177 -1
103 0 5 160 94 178 114
104 0 5 159 93 179 116
105 0 5 158 94 179 113
106 0 5 158 95 179 111
107 0 5 159 95 179 -1
108 0 5 159 96 180 -1
109 0 5 159 96 179 -1
110 1 5 159 97 178 -1
111 1 5 159 96 178 106
112 1 5 158 96 179 -1
113 1 5 158 95 180 105
114 1 5 159 94 179 103
115 1 5 158 94 178 -1
116 1 5 158 93 178 104
117 1 5 159 92 177 -1
118 1 5 160 91 177 -1
119 1 5 159 90 177 -1
120 0 6 131 88 118 137
121 0 6 132 87 118 -1
122 0 6 132 86 118 134
123 0 6 133 85 117 131
124 0 6 133 84 116 -1
125 0 6 134 84 117 -1
126 0 6 134 85 117 132
127 0 6 135 85 116 -1
128 0 6 135 85 117 -1
129 0 6 135 85 118 130
130 1 6 134 84 118 129
131 1 6 134 85 118 123
132 1 6 133 86 117 126
133 1 6 132 87 117 -1
134 1 6 131 87 117 122
135 1 6 131 86 116 -1
136 1 6 131 86 117 -1
137 1 6 130 87 117 120
138 1 6 129 88 116 -1
139 1 6 128 89 115 -1
140 0 7 158 196 93 -1
141 0 7 159 196 94 158
142 0 7 159 196 95 157
143 0 7 159 196 96 159
144 0 7 158 197 97 153
145 0 7 159 198 96 156
146 0 7 158 198 97 155
147 0 7 157 199 97 151
148 0 7 157 198 97 -1
149 0 7 156 198 98 -1
150 1 7 155 198 98 -1
151 1 7 156 198 97 147
152 1 7 156 197 97 -1
153 1 7 157 198 98 144
154 1 7 157 197 97 -1
155 1 7 158 197 98 146
156 1 7 159 198 97 145
157 1 7 159 197 96 142
158 1 7 159 197 95 141
159 1 7 158 196 96 143
160 0 8 134 88 54 -1
161 0 8 134 89 53 -1
162 0 8 135 88 52 -1
163 0 8 134 87 51 175
164 0 8 133 88 50 176
165 0 8 134 89 51 171
166 0 8 134 88 50 173
167 0 8 133 87 51 -1
168 0 8 133 88 52 -1
169 0 8 134 88 51 174
170 1 8 133 89 50 -1
171 1 8 134 89 50 165
172 1 8 135 89 51 -1
173 1 8 135 88 51 166
174 1 8 135 87 51 169
175 1 8 135 88 50 163
176 1 8 134 87 49 164
177 1 8 135 88 49 -1
178 1 8 136 87 50 -1
179 1 8 137 86 50 -1
180 0 9 56 100 117 -1
181 0 9 57 101 116 193
182 0 9 56 102 115 195
183 0 9 57 103 116 197
184 0 9 58 104 115 -1
185 0 9 57 105 116 191
186 0 9 56 105 116 -1
187 0 9 57 104 117 192
188 0 9 56 103 117 198
189 0 9 55 104 116 -1
190 1 9 56 105 115 -1
191 1 9 57 104 116 185
192 1 9 57 103 117 187
193 1 9 58 102 116 181
194 1 9 58 101 115 -1
195 1 9 57 102 115 182
196 1 9 56 103 116 -1
197 1 9 56 104 116 183
198 1 9 55 104 117 188
199 1 9 56 103 118 -1
200 0 10 66 122 55 -1
201 0 10 67 121 56 214
202 0 10 66 120 55 216
203 0 10 65 121 56 215
204 0 10 65 120 57 217
205 0 10 66 119 58 213
206 0 10 67 118 57 211
207 0 10 68 118 56 212
208 0 10 68 117 57 210
209 0 10 69 118 57 -1
210 1 10 68 118 57 208
211 1 10 68 119 56 206
212 1 10 68 119 57 207
213 1 10 67 119 58 205
214 1 10 66 120 57 201
215 1 10 66 120 56 203
216 1 10 65 119 56 202
217 1 10 64 120 56 204
218 1 10 63 120 57 -1
219 1 10 62 120 58 -1
220 0 11 122 97 118 234
221 0 11 123 96 117 239
222 0 11 124 97 117 -1
223 0 11 123 98 116 232
224 0 11 123 97 116 230
225 0 11 123 96 115 -1
226 0 11 124 97 116 -1
227 0 11 124 96 117 -1
228 0 11 125 95 116 -1
229 0 11 124 96 116 231
230 1 11 124 97 115 224
231 1 11 123 97 115 229
232 1 11 122 97 116 223
233 1 11 121 97 117 -1
234 1 11 121 96 117 220
235 1 11 122 95 118 -1
236 1 11 123 95 118 -1
237 1 11 124 94 118 -1
238 1 11 123 94 117 -1
239 1 11 124 95 117 221
240 0 12 24 117 189 -1
241 0 12 23 118 190 -1
242 0 12 22 119 191 256
243 0 12 21 119 191 255
244 0 12 20 119 192 250
245 0 12 19 119 192 251
246 0 12 18 120 193 253
247 0 12 18 120 192 -1
248 0 12 19 120 191 252
249 0 12 18 120 191 -1
250 1 12 19 119 191 244
251 1 12 20 120 191 245
252 1 12 20 120 192 248
253 1 12 19 119 193 246
254 1 12 20 118 193 -1
255 1 12 21 118 192 243
256 1 12 21 118 191 242
257 1 12 20 117 190 -1
258 1 12 21 117 191 -1
259 1 12 20 116 190 -1
260 0 13 24 105 154 274
261 0 13 24 104 154 279
262 0 13 25 103 155 272
263 0 13 25 104 154 -1
264 0 13 25 105 154 -1
265 0 13 26 105 154 278
266 0 13 26 106 155 273
267 0 13 26 106 154 277
268 0 13 27 106 154 276
269 0 13 28 105 155 270
270 1 13 27 105 156 269
271 1 13 26 104 156 -1
272 1 13 26 104 155 262
273 1 13 26 105 156 266
274 1 13 25 105 155 260
275 1 13 26 106 156 -1
276 1 13 26 107 155 268
277 1 13 27 107 154 267
278 1 13 26 106 153 265
279 1 13 25 105 153 261
280 0 14 18 122 39 -1
281 0 14 19 123 40 295
282 0 14 18 123 40 298
283 0 14 18 124 41 297
284 0 14 19 125 40 296
285 0 14 20 124 39 -1
286 0 14 21 124 40 294
287 0 14 22 124 41 292
288 0 14 23 124 42 290
289 0 14 24 124 42 -1
290 1 14 23 125 41 288
291 1 14 22 124 40 -1
292 1 14 21 123 40 287
293 1 14 21 124 41 -1
294 1 14 20 125 40 286
295 1 14 19 124 41 281
296 1 14 18 125 41 284
297 1 14 19 124 42 283
298 1 14 18 123 41 282
299 1 14 18 122 40 -1
300 0 15 79 40 89 317
301 0 15 80 40 89 315
302 0 15 80 40 90 -1
303 0 15 81 39 90 313
304 0 15 82 38 90 319
305 0 15 83 39 90 -1
306 0 15 83 40 90 310
307 0 15 83 41 90 -1
308 0 15 82 42 89 -1
309 0 15 81 41 90 314
310 1 15 82 40 90 306
311 1 15 83 39 89 -1
312 1 15 83 40 89 -1
313 1 15 82 39 89 303
314 1 15 81 40 90 309
315 1 15 81 39 89 301
316 1 15 80 38 90 -1
317 1 15 80 39 89 300
318 1 15 80 38 88 -1
319 1 15 81 37 89 304
320 0 16 195 59 114 338
321 0 16 196 58 113 336
322 0 16 195 58 112 339
323 0 16 194 57 112 -1
324 0 16 195 57 113 -1
325 0 16 194 58 114 -1
326 0 16 193 58 114 -1
327 0 16 193 59 114 334
328 0 16 193 60 113 330
329 0 16 192 60 114 331
330 1 16 193 61 114 328
331 1 16 192 61 115 329
332 1 16 193 62 114 -1
333 1 16 194 61 113 -1
334 1 16 194 60 113 327
335 1 16 195 59 113 -1
336 1 16 196 59 114 321
337 1 16 197 58 114 -1
338 1 16 196 58 114 320
339 1 16 195 58 113 322
340 0 17 145 28 112 -1
341 0 17 144 27 113 357
342 0 17 145 26 114 355
343 0 17 146 27 114 351
344 0 17 147 28 114 350
345 0 17 146 28 115 352
346 0 17 145 27 115 -1
347 0 17 145 28 114 353
348 0 17 146 28 113 356
349 0 17 147 29 113 -1
350 1 17 146 28 114 344
351 1 17 147 28 115 343
352 1 17 146 28 116 345
353 1 17 146 27 115 347
354 1 17 146 26 114 -1
355 1 17 146 27 113 342
356 1 17 145 27 113 348
357 1 17 145 26 112 341
358 1 17 144 26 112 -1
359 1 17 143 26 111 -1
360 0 18 154 97 92 376
361 0 18 153 98 92 378
362 0 18 154 99 93 -1
363 0 18 155 98 93 375
364 0 18 155 98 94 374
365 0 18 154 97 95 -1
366 0 18 153 97 94 -1
367 0 18 154 96 95 -1
368 0 18 155 96 96 372
369 0 18 154 95 96 370
370 1 18 155 94 96 369
371 1 18 154 94 95 -1
372 1 18 155 95 95 368
373 1 18 154 96 94 -1
374 1 18 154 97 93 364
375 1 18 155 97 92 363
376 1 18 154 96 91 360
377 1 18 153 96 91 -1
378 1 18 152 97 92 361
379 1 18 152 96 92 -1
380 0 19 145 151 36 398
381 0 19 146 150 37 394
382 0 19 145 149 37 396
383 0 19 145 148 37 393
384 0 19 144 149 37 -1
385 0 19 145 149 36 399
386 0 19 146 148 35 -1
387 0 19 146 147 36 395
388 0 19 147 146 36 390
389 0 19 147 146 37 392
390 1 19 148 145 37 388
391 1 19 147 146 38 -1
392 1 19 147 147 38 389
393 1 19 146 148 38 383
394 1 19 147 149 37 381
395 1 19 146 148 36 387
396 1 19 145 148 36 382
397 1 19 144 149 36 -1
398 1 19 145 150 35 380
399 1 19 144 150 35 385
400 0 20 196 64 63 416
401 0 20 196 63 64 -1
402 0 20 197 64 63 -1
403 0 20 196 64 62 -1
404 0 20 197 65 63 417
405 0 20 198 66 62 -1
406 0 20 197 65 62 412
407 0 20 196 65 61 414
408 0 20 195 64 62 415
409 0 20 196 64 61 410
410 1 20 197 65 61 409
411 1 20 197 66 60 -1
412 1 20 196 66 61 406
413 1 20 195 66 62 -1
414 1 20 195 65 61 407
415 1 20 195 64 61 408
416 1 20 196 65 62 400
417 1 20 197 66 62 404
418 1 20 196 65 63 -1
419 1 20 195 66 64 -1
420 0 21 14 97 122 -1
421 0 21 13 98 121 437
422 0 21 14 97 121 435
423 0 21 14 97 120 -1
424 0 21 13 98 120 439
425 0 21 14 99 119 436
426 0 21 14 99 120 432
427 0 21 14 100 119 433
428 0 21 15 101 119 -1
429 0 21 15 100 120 434
430 1 21 14 101 120 -1
431 1 21 13 101 119 -1
432 1 21 13 100 119 426
433 1 21 14 100 120 427
434 1 21 15 99 120 429
435 1 21 14 98 120 422
436 1 21 13 99 120 425
437 1 21 12 98 120 421
438 1 21 12 97 121 -1
439 1 21 13 97 121 424
440 0 22 59 42 132 454
441 0 22 59 42 131 453
442 0 22 60 43 130 -1
443 0 22 60 44 131 458
444 0 22 59 45 131 455
445 0 22 59 46 132 -1
446 0 22 59 46 131 -1
447 0 22 60 45 132 459
448 0 22 61 45 133 -1
449 0 22 62 44 132 450
450 1 22 63 43 132 449
451 1 22 62 42 133 -1
452 1 22 61 43 132 -1
453 1 22 60 42 132 441
454 1 22 59 43 131 440
455 1 22 59 44 132 444
456 1 22 60 44 132 -1
457 1 22 60 45 133 -1
458 1 22 59 45 132 443
459 1 22 60 45 131 447
460 0 23 85 165 109 -1
461 0 23 84 166 110 473
462 0 23 84 167 109 479
463 0 23 85 167 109 478
464 0 23 84 168 110 472
465 0 23 85 167 111 474
466 0 23 86 168 111 471
467 0 23 87 168 111 476
468 0 23 86 168 110 477
469 0 23 85 168 111 470
470 1 23 86 168 112 469
471 1 23 85 168 112 466
472 1 23 84 168 111 464
473 1 23 85 167 110 461
474 1 23 86 166 110 465
475 1 23 86 167 110 -1
476 1 23 86 167 111 467
477 1 23 87 168 110 468
478 1 23 86 167 109 463
479 1 23 85 168 110 462
480 0 24 4 158 170 -1
481 0 24 3 158 169 -1
482 0 24 2 159 170 -1
483 0 24 3 158 171 -1
484 0 24 2 158 170 -1
485 0 24 1 157 170 493
486 0 24 0 156 171 499
487 0 24 199 157 170 495
488 0 24 198 158 171 492
489 0 24 199 157 172 490
490 1 24 198 157 171 489
491 1 24 199 157 171 -1
492 1 24 199 158 170 488
493 1 24 0 157 169 485
494 1 24 1 156 169 -1
495 1 24 0 157 170 487
496 1 24 199 156 169 -1
497 1 24 0 156 168 -1
498 1 24 0 156 169 -1
499 1 24 1 155 170 486
500 0 25 72 138 101 -1
501 0 25 73 137 100 -1
502 0 25 73 137 99 512
503 0 25 73 138 98 514
504 0 25 74 139 98 -1
505 0 25 73 140 98 -1
506 0 25 74 139 97 -1
507 0 25 73 138 97 516
508 0 25 72 137 96 515
509 0 25 73 136 96 518
510 1 25 72 135 97 -1
511 1 25 72 135 98 -1
512 1 25 73 136 98 502
513 1 25 74 137 98 -1
514 1 25 73 137 97 503
515 1 25 73 137 96 508
516 1 25 73 138 96 507
517 1 25 74 137 97 -1
518 1 25 73 136 97 509
519 1 25 72 136 97 -1
520 0 26 166 183 73 538
521 0 26 165 182 74 539
522 0 26 165 183 73 537
523 0 26 164 182 72 535
524 0 26 163 183 71 -1
525 0 26 162 182 72 -1
526 0 26 162 183 72 534
527 0 26 161 184 72 530
528 0 26 162 184 71 532
529 0 26 161 185 72 -1
530 1 26 161 185 71 527
531 1 26 160 184 71 -1
532 1 26 161 183 72 528
533 1 26 162 182 71 -1
534 1 26 162 183 71 526
535 1 26 163 183 72 523
536 1 26 164 183 72 -1
537 1 26 165 184 73 522
538 1 26 166 183 74 520
539 1 26 165 182 73 521
540 0 27 166 86 185 556
541 0 27 165 86 185 557
542 0 27 165 85 186 554
543 0 27 165 84 186 550
544 0 27 164 83 186 551
545 0 27 164 84 186 552
546 0 27 165 84 187 553
547 0 27 165 83 186 -1
548 0 27 164 83 187 -1
549 0 27 165 82 186 -1
550 1 27 165 83 187 543
551 1 27 164 84 187 544
552 1 27 165 85 187 545
553 1 27 164 85 188 546
554 1 27 165 86 187 542
555 1 27 164 86 186 -1
556 1 27 165 85 185 540
557 1 27 166 86 184 541
558 1 27 167 86 185 -1
559 1 27 166 87 185 -1
560 0 28 184 110 121 575
561 0 28 185 111 122 571
562 0 28 186 111 122 576
563 0 28 185 112 122 572
564 0 28 184 112 121 -1
565 0 28 183 113 121 -1
566 0 28 184 113 120 -1
567 0 28 185 112 120 578
568 0 28 185 113 120 570
569 0 28 185 112 119 -1
570 1 28 186 112 120 568
571 1 28 185 112 121 561
572 1 28 186 113 121 563
573 1 28 186 112 122 -1
574 1 28 185 111 121 -1
575 1 28 184 111 121 560
576 1 28 185 110 121 562
577 1 28 186 110 120 -1
578 1 28 186 111 121 567
579 1 28 186 111 120 -1
580 0 29 179 53 108 -1
581 0 29 179 53 107 594
582 0 29 180 54 107 590
583 0 29 180 53 108 595
584 0 29 181 54 107 593
585 0 29 181 54 106 -1
586 0 29 180 55 107 592
587 0 29 179 56 107 -1
588 0 29 180 56 108 591
589 0 29 181 56 109 -1
590 1 29 180 55 108 582
591 1 29 181 56 107 588
592 1 29 181 55 106 586
593 1 29 180 54 106 584
594 1 29 179 54 106 581
595 1 29 180 53 107 583
596 1 29 179 52 106 -1
597 1 29 178 51 105 -1
598 1 29 179 52 104 -1
599 1 29 178 51 104 -1
600 0 30 39 109 138 -1
601 0 30 39 110 139 -1
602 0 30 38 110 140 616
603 0 30 37 110 140 -1
604 0 30 36 111 139 -1
605 0 30 37 111 140 -1
606 0 30 38 111 141 -1
607 0 30 39 110 142 614
608 0 30 39 111 142 615
609 0 30 38 112 141 610
610 1 30 38 113 142 609
611 1 30 39 114 141 -1
612 1 30 39 113 141 -1
613 1 30 40 112 142 -1
614 1 30 39 111 141 607
615 1 30 39 110 141 608
616 1 30 38 110 141 602
617 1 30 39 111 140 -1
618 1 30 39 112 139 -1
619 1 30 39 113 140 -1
620 0 31 158 72 124 -1
621 0 31 159 73 124 633
622 0 31 158 73 123 4534
623 0 31 158 72 122 634
624 0 31 158 73 122 635
625 0 31 158 74 121 -1
626 0 31 159 74 122 632
627 0 31 160 73 121 636
628 0 31 159 72 122 630
629 0 31 160 71 122 -1
630 1 31 160 72 122 628
631 1 31 161 73 123 -1
632 1 31 160 74 123 626
633 1 31 159 73 123 621
634 1 31 159 73 122 623
635 1 31 159 73 121 624
636 1 31 159 74 120 627
637 1 31 158 75 119 -1
638 1 31 157 75 118 -1
639 1 31 157 75 119 -1
640 0 32 9 128 167 -1
641 0 32 10 129 168 -1
642 0 32 9 128 169 657
643 0 32 10 129 170 -1
644 0 32 10 129 169 656
645 0 32 10 128 170 655
646 0 32 11 127 170 658
647 0 32 10 128 171 652
648 0 32 11 128 171 -1
649 0 32 11 127 172 650
650 1 32 11 128 172 649
651 1 32 10 127 172 -1
652 1 32 9 127 172 647
653 1 32 8 127 171 -1
654 1 32 9 127 170 -1
655 1 32 10 128 169 645
656 1 32 9 128 170 644
657 1 32 10 127 169 642
658 1 32 11 128 169 646
659 1 32 12 128 170 -1
660 0 33 139 40 101 -1
661 0 33 139 39 102 677
662 0 33 139 38 102 -1
663 0 33 139 37 103 -1
664 0 33 138 38 104 670
665 0 33 138 38 103 672
666 0 33 138 38 102 676
667 0 33 138 39 101 -1
668 0 33 137 40 102 673
669 0 33 137 40 103 671
670 1 33 138 39 104 664
671 1 33 138 40 103 669
672 1 33 137 39 102 665
673 1 33 137 40 101 668
674 1 33 137 39 101 -1
675 1 33 137 38 101 -1
676 1 33 138 39 102 666
677 1 33 139 39 103 661
678 1 33 139 40 104 -1
679 1 33 139 41 105 -1
680 0 34 29 185 133 -1
681 0 34 30 186 134 693
682 0 34 31 186 135 692
683 0 34 31 185 136 695
684 0 34 30 185 136 691
685 0 34 29 184 136 698
686 0 34 29 184 137 699
687 0 34 30 183 136 690
688 0 34 31 183 135 696
689 0 34 30 184 134 694
690 1 34 30 183 135 687
691 1 34 31 184 136 684
692 1 34 31 185 135 682
693 1 34 31 186 134 681
694 1 34 30 185 134 689
695 1 34 31 184 135 683
696 1 34 30 183 134 688
697 1 34 30 184 135 -1
698 1 34 29 184 135 685
699 1 34 29 185 136 686
700 0 35 60 113 116 -1
701 0 35 60 112 115 719
702 0 35 59 112 116 716
703 0 35 58 113 117 711
704 0 35 59 113 118 712
705 0 35 59 112 118 715
706 0 35 60 111 117 713
707 0 35 59 110 116 717
708 0 35 60 111 116 710
709 0 35 61 111 115 -1
710 1 35 60 112 116 708
711 1 35 59 112 117 703
712 1 35 60 112 117 704
713 1 35 60 112 118 706
714 1 35 60 111 118 -1
715 1 35 59 111 117 705
716 1 35 58 112 116 702
717 1 35 59 111 115 707
718 1 35 58 112 115 -1
719 1 35 59 111 114 701
720 0 36 141 87 77 730
721 0 36 140 86 77 -1
722 0 36 139 85 78 -1
723 0 36 140 85 79 731
724 0 36 139 86 80 732
725 0 36 140 86 79 733
726 0 36 139 87 79 734
727 0 36 139 88 78 -1
728 0 36 140 88 77 -1
729 0 36 141 88 77 -1
730 1 36 140 87 78 720
731 1 36 140 86 78 723
732 1 36 140 87 79 724
733 1 36 139 86 79 725
734 1 36 138 87 79 726
735 1 36 137 87 79 -1
736 1 36 137 88 78 -1
737 1 36 136 89 78 -1
738 1 36 136 90 78 -1
739 1 36 136 91 79 -1
740 0 37 95 110 198 757
741 0 37 94 110 197 754
742 0 37 93 111 198 758
743 0 37 94 111 199 759
744 0 37 95 112 198 -1
745 0 37 94 113 197 -1
746 0 37 93 112 197 753
747 0 37 93 111 196 752
748 0 37 92 110 197 755
749 0 37 91 110 196 750
750 1 37 91 109 196 749
751 1 37 91 110 197 -1
752 1 37 92 110 196 747
753 1 37 92 111 197 746
754 1 37 93 110 197 741
755 1 37 93 109 198 748
756 1 37 93 110 199 -1
757 1 37 94 111 198 740
758 1 37 94 112 198 742
759 1 37 93 112 198 743
760 0 38 76 22 108 779
761 0 38 76 23 107 -1
762 0 38 77 22 107 -1
763 0 38 76 23 108 775
764 0 38 76 23 109 776
765 0 38 75 23 108 -1
766 0 38 74 24 109 770
767 0 38 73 25 110 773
768 0 38 74 26 111 771
769 0 38 74 25 111 772
770 1 38 73 24 110 766
771 1 38 73 25 111 768
772 1 38 74 24 110 769
773 1 38 74 25 109 767
774 1 38 74 24 108 -1
775 1 38 75 23 109 763
776 1 38 76 23 110 764
777 1 38 77 22 110 -1
778 1 38 78 22 109 -1
779 1 38 77 22 108 760
780 0 39 11 194 37 -1
781 0 39 11 195 38 797
782 0 39 10 196 39 -1
783 0 39 10 195 39 -1
784 0 39 11 194 40 796
785 0 39 12 193 40 795
786 0 39 11 192 40 792
787 0 39 11 191 40 790
788 0 39 11 192 39 793
789 0 39 12 192 38 794
790 1 39 12 191 39 787
791 1 39 11 191 39 -1
792 1 39 10 191 39 786
793 1 39 11 192 38 788
794 1 39 12 192 39 789
795 1 39 12 193 39 785
796 1 39 11 194 39 784
797 1 39 12 194 39 781
798 1 39 12 195 39 -1
799 1 39 12 195 38 -1
800 0 40 130 44 30 -1
801 0 40 130 45 31 815
802 0 40 131 44 30 819
803 0 40 130 45 30 817
804 0 40 131 46 31 818
805 0 40 132 46 30 -1
806 0 40 132 46 29 816
807 0 40 131 47 30 814
808 0 40 132 48 31 813
809 0 40 133 47 32 812
810 1 40 132 48 33 -1
811 1 40 133 48 32 -1
812 1 40 133 47 31 809
813 1 40 132 47 31 808
814 1 40 131 47 31 807
815 1 40 130 46 30 801
816 1 40 131 47 29 806
817 1 40 131 46 30 803
818 1 40 132 45 31 804
819 1 40 132 45 30 802
820 0 41 82 118 69 834
821 0 41 82 119 69 839
822 0 41 82 119 70 837
823 0 41 83 120 69 835
824 0 41 82 120 70 -1
825 0 41 83 121 70 836
826 0 41 84 120 69 833
827 0 41 84 120 68 832
828 0 41 85 120 67 831
829 0 41 86 119 67 830
830 1 41 87 119 67 829
831 1 41 86 120 67 828
832 1 41 85 120 68 827
833 1 41 84 119 69 826
834 1 41 83 118 68 820
835 1 41 82 119 68 823
836 1 41 82 120 69 825
837 1 41 81 120 69 822
838 1 41 82 120 68 -1
839 1 41 83 119 69 821
840 0 42 80 194 41 -1
841 0 42 79 195 40 858
842 0 42 78 194 39 855
843 0 42 79 194 40 856
844 0 42 78 194 40 857
845 0 42 78 193 40 851
846 0 42 78 192 41 853
847 0 42 79 192 42 854
848 0 42 78 192 42 -1
849 0 42 77 193 42 850
850 1 42 76 192 42 849
851 1 42 77 192 41 845
852 1 42 77 192 40 -1
853 1 42 78 193 41 846
854 1 42 79 193 41 847
855 1 42 79 193 40 842
856 1 42 78 194 41 843
857 1 42 77 194 41 844
858 1 42 78 195 41 841
859 1 42 78 195 40 -1
860 0 43 95 159 153 -1
861 0 43 94 158 153 874
862 0 43 94 158 152 873
863 0 43 93 157 152 -1
864 0 43 93 156 152 871
865 0 43 94 155 151 -1
866 0 43 95 155 152 870
867 0 43 95 156 151 879
868 0 43 95 156 150 877
869 0 43 96 157 151 876
870 1 43 95 156 152 866
871 1 43 94 156 153 864
872 1 43 95 157 154 -1
873 1 43 94 157 153 862
874 1 43 95 158 153 861
875 1 43 96 157 153 -1
876 1 43 97 156 152 869
877 1 43 96 155 151 868
878 1 43 96 154 150 -1
879 1 43 95 155 151 867
880 0 44 115 66 78 899
881 0 44 114 66 78 897
882 0 44 115 67 78 898
883 0 44 114 68 79 895
884 0 44 114 68 78 896
885 0 44 113 68 79 894
886 0 44 113 69 78 892
887 0 44 112 70 77 893
888 0 44 111 70 78 890
889 0 44 111 69 78 -1
890 1 44 112 70 78 888
891 1 44 112 69 79 -1
892 1 44 112 70 79 886
893 1 44 112 69 78 887
894 1 44 113 68 78 885
895 1 44 114 69 78 883
896 1 44 115 68 78 884
897 1 44 114 67 78 881
898 1 44 115 66 79 882
899 1 44 116 67 78 880
900 0 45 144 94 196 910
901 0 45 143 95 195 911
902 0 45 143 96 194 -1
903 0 45 143 95 194 -1
904 0 45 144 94 193 -1
905 0 45 143 95 193 913
906 0 45 144 96 192 -1
907 0 45 145 95 193 912
908 0 45 146 96 194 -1
909 0 45 145 96 195 -1
910 1 45 144 95 195 900
911 1 45 144 95 194 901
912 1 45 144 96 193 907
913 1 45 143 96 192 905
914 1 45 142 95 192 -1
915 1 45 141 95 192 -1
916 1 45 140 96 193 -1
917 1 45 139 96 192 -1
918 1 45 140 97 193 -1
919 1 45 141 98 194 -1
920 0 46 108 35 169 937
921 0 46 108 36 168 936
922 0 46 107 35 167 -1
923 0 46 106 36 166 935
924 0 46 107 37 166 933
925 0 46 107 36 166 -1
926 0 46 107 37 167 934
927 0 46 108 38 166 930
928 0 46 107 39 167 932
929 0 46 107 40 167 931
930 1 46 108 39 166 927
931 1 46 107 40 166 929
932 1 46 108 39 167 928
933 1 46 108 38 167 924
934 1 46 107 37 168 926
935 1 46 106 36 167 923
936 1 46 107 36 167 921
937 1 46 107 35 168 920
938 1 46 108 34 167 -1
939 1 46 109 33 168 -1
940 0 47 84 105 24 955
941 0 47 84 104 24 957
942 0 47 84 103 24 953
943 0 47 83 102 24 952
944 0 47 83 101 24 -1
945 0 47 84 102 23 -1
946 0 47 85 101 24 -1
947 0 47 84 101 23 -1
948 0 47 83 102 22 950
949 0 47 84 102 22 -1
950 1 47 84 102 21 948
951 1 47 84 103 22 -1
952 1 47 84 103 23 943
953 1 47 83 104 24 942
954 1 47 82 105 24 -1
955 1 47 83 105 24 940
956 1 47 84 104 25 -1
957 1 47 85 104 24 941
958 1 47 86 104 23 -1
959 1 47 86 105 22 -1
960 0 48 137 105 126 -1
961 0 48 137 104 127 -1
962 0 48 136 103 128 -1
963 0 48 136 104 129 976
964 0 48 136 105 130 975
965 0 48 136 104 131 978
966 0 48 137 103 130 -1
967 0 48 138 103 131 -1
968 0 48 138 104 130 -1
969 0 48 137 105 129 974
970 1 48 138 105 130 -1
971 1 48 138 106 129 -1
972 1 48 139 105 129 -1
973 1 48 139 106 130 -1
974 1 48 138 106 130 969
975 1 48 137 106 129 964
976 1 48 137 105 130 963
977 1 48 136 105 131 -1
978 1 48 137 105 132 965
979 1 48 137 106 131 -1
980 0 49 6 102 169 992
981 0 49 7 102 170 993
982 0 49 6 101 170 998
983 0 49 5 102 171 999
984 0 49 5 102 172 995
985 0 49 6 103 171 -1
986 0 49 5 104 172 996
987 0 49 6 105 172 991
988 0 49 6 106 172 -1
989 0 49 5 105 172 990
990 1 49 4 104 172 989
991 1 49 5 104 171 987
992 1 49 6 103 170 980
993 1 49 7 102 171 981
994 1 49 6 101 172 -1
995 1 49 5 102 173 984
996 1 49 6 103 173 986
997 1 49 6 102 172 -1
998 1 49 5 101 171 982
999 1 49 5 101 170 983
1000 0 50 107 173 93 -1
1001 0 50 106 173 94 1012
1002 0 50 106 174 93 1014
1003 0 50 107 175 94 1013
1004 0 50 106 174 94 -1
1005 0 50 105 175 93 1011
1006 0 50 106 175 94 1015
1007 0 50 105 174 93 -1
1008 0 50 105 174 92 1010
1009 0 50 105 175 92 1019
1010 1 50 106 174 92 1008
1011 1 50 106 175 93 1005
1012 1 50 107 174 94 1001
1013 1 50 108 174 93 1003
1014 1 50 107 175 92 1002
1015 1 50 107 176 93 1006
1016 1 50 106 177 92 -1
1017 1 50 106 177 91 -1
1018 1 50 106 176 92 -1
1019 1 50 105 176 92 1009
1020 0 51 31 124 157 -1
1021 0 51 30 123 158 1035
1022 0 51 30 122 157 1032
1023 0 51 29 123 156 1033
1024 0 51 28 122 156 1036
1025 0 51 28 123 156 1039
1026 0 51 29 123 155 1030
1027 0 51 29 123 154 1031
1028 0 51 29 124 155 -1
1029 0 51 30 123 154 -1
1030 1 51 29 122 154 1026
1031 1 51 30 123 155 1027
1032 1 51 29 122 156 1022
1033 1 51 28 123 157 1023
1034 1 51 28 123 158 -1
1035 1 51 29 123 157 1021
1036 1 51 28 122 157 1024
1037 1 51 27 123 158 -1
1038 1 51 26 123 158 -1
1039 1 51 27 124 157 1025
1040 0 52 141 147 12 -1
1041 0 52 140 148 11 -1
1042 0 52 139 149 10 1059
1043 0 52 138 148 9 1057
1044 0 52 137 149 8 1052
1045 0 52 137 148 8 1056
1046 0 52 137 149 9 1058
1047 0 52 136 148 9 1054
1048 0 52 135 149 8 1053
1049 0 52 134 148 7 1051
1050 1 52 134 148 6 -1
1051 1 52 135 148 7 1049
1052 1 52 136 148 7 1044
1053 1 52 136 148 8 1048
1054 1 52 137 147 8 1047
1055 1 52 138 147 8 -1
1056 1 52 138 147 7 1045
1057 1 52 138 148 8 1043
1058 1 52 138 149 9 1046
1059 1 52 139 149 9 1042
1060 0 53 194 168 25 1074
1061 0 53 195 167 25 1073
1062 0 53 196 168 26 -1
1063 0 53 196 169 26 -1
1064 0 53 195 168 26 -1
1065 0 53 196 167 26 -1
1066 0 53 197 166 25 -1
1067 0 53 197 167 24 1075
1068 0 53 198 167 24 1070
1069 0 53 198 167 25 1072
1070 1 53 199 168 24 1068
1071 1 53 198 168 24 -1
1072 1 53 197 168 24 1069
1073 1 53 196 168 25 1061
1074 1 53 195 168 25 1060
1075 1 53 196 168 24 1067
1076 1 53 195 168 23 -1
1077 1 53 195 167 22 -1
1078 1 53 195 167 21 -1
1079 1 53 194 168 20 -1
1080 0 54 93 87 5 -1
1081 0 54 92 88 4 -1
1082 0 54 91 88 4 1093
1083 0 54 90 88 4 1094
1084 0 54 91 87 3 1091
1085 0 54 90 88 2 1092
1086 0 54 89 88 2 1097
1087 0 54 88 89 3 -1
1088 0 54 89 89 4 -1
1089 0 54 90 88 3 1090
1090 1 54 91 89 3 1089
1091 1 54 92 88 3 1084
1092 1 54 91 87 2 1085
1093 1 54 90 87 3 1082
1094 1 54 89 88 3 1083
1095 1 54 89 87 3 -1
1096 1 54 88 86 2 -1
1097 1 54 88 87 1 1086
1098 1 54 87 87 0 -1
1099 1 54 88 87 199 -1
1100 0 55 3 49 192 -1
1101 0 55 3 49 193 -1
1102 0 55 4 50 194 1113
1103 0 55 3 50 193 -1
1104 0 55 4 50 193 1112
1105 0 55 4 50 192 -1
1106 0 55 3 50 192 1111
1107 0 55 3 50 191 -1
1108 0 55 4 49 192 -1
1109 0 55 4 50 191 1110
1110 1 55 3 51 192 1109
1111 1 55 4 51 193 1106
1112 1 55 5 51 193 1104
1113 1 55 5 51 194 1102
1114 1 55 5 52 194 -1
1115 1 55 6 51 194 -1
1116 1 55 7 50 195 -1
1117 1 55 7 49 194 -1
1118 1 55 6 48 195 -1
1119 1 55 5 49 195 -1
1120 0 56 108 192 122 1130
1121 0 56 109 192 121 -1
1122 0 56 108 193 122 1134
1123 0 56 109 194 123 1135
1124 0 56 108 194 123 1137
1125 0 56 107 195 124 -1
1126 0 56 106 194 124 -1
1127 0 56 107 193 123 1136
1128 0 56 106 192 122 1131
1129 0 56 106 191 122 1132
1130 1 56 107 192 121 1120
1131 1 56 106 191 121 1128
1132 1 56 105 192 122 1129
1133 1 56 106 193 122 -1
1134 1 56 107 192 122 1122
1135 1 56 108 193 123 1123
1136 1 56 107 194 124 1127
1137 1 56 108 193 124 1124
1138 1 56 107 192 123 -1
1139 1 56 107 191 123 -1
1140 0 57 180 128 195 -1
1141 0 57 179 129 194 1155
1142 0 57 178 128 193 1150
1143 0 57 179 128 192 1159
1144 0 57 178 127 192 1156
1145 0 57 177 126 193 1151
1146 0 57 177 126 194 1153
1147 0 57 178 125 195 1152
1148 0 57 179 125 194 -1
1149 0 57 180 126 194 1157
1150 1 57 179 127 194 1142
1151 1 57 178 126 193 1145
1152 1 57 179 126 194 1147
1153 1 57 178 127 194 1146
1154 1 57 177 128 193 -1
1155 1 57 178 129 193 1141
1156 1 57 179 128 193 1144
1157 1 57 180 127 193 1149
1158 1 57 180 128 193 -1
1159 1 57 180 127 192 1143
1160 0 58 129 168 59 -1
1161 0 58 128 167 58 1172
1162 0 58 127 166 59 1175
1163 0 58 126 166 60 1178
1164 0 58 125 165 60 1179
1165 0 58 125 166 60 1176
1166 0 58 126 167 60 1177
1167 0 58 127 167 60 -1
1168 0 58 128 167 60 -1
1169 0 58 128 168 59 1174
1170 1 58 128 169 59 -1
1171 1 58 129 168 58 -1
1172 1 58 128 168 57 1161
1173 1 58 128 169 58 -1
1174 1 58 127 168 58 1169
1175 1 58 127 167 59 1162
1176 1 58 126 166 59 1165
1177 1 58 127 166 60 1166
1178 1 58 126 165 59 1163
1179 1 58 126 165 60 1164
1180 0 59 170 81 182 1192
1181 0 59 169 80 182 1193
1182 0 59 170 81 181 1198
1183 0 59 170 82 181 -1
1184 0 59 171 83 181 1196
1185 0 59 171 82 181 1194
1186 0 59 171 82 182 1197
1187 0 59 171 83 183 1190
1188 0 59 170 83 183 -1
1189 0 59 170 82 182 1191
1190 1 59 170 83 182 1187
1191 1 59 169 82 181 1189
1192 1 59 169 81 182 1180
1193 1 59 170 80 181 1181
1194 1 59 171 81 180 1185
1195 1 59 172 82 180 -1
1196 1 59 172 82 181 1184
1197 1 59 172 81 182 1186
1198 1 59 171 80 181 1182
1199 1 59 170 79 181 -1
1200 0 60 162 177 134 -1
1201 0 60 161 177 133 -1
1202 0 60 161 176 133 -1
1203 0 60 162 175 132 1210
1204 0 60 163 175 132 -1
1205 0 60 164 174 132 1218
1206 0 60 163 174 133 1214
1207 0 60 163 173 134 1219
1208 0 60 162 174 133 1213
1209 0 60 162 175 133 1212
1210 1 60 162 174 132 1203
1211 1 60 161 175 133 -1
1212 1 60 161 174 133 1209
1213 1 60 161 173 132 1208
1214 1 60 162 173 132 1206
1215 1 60 162 172 131 -1
1216 1 60 161 172 132 -1
1217 1 60 162 172 133 -1
1218 1 60 163 173 133 1205
1219 1 60 163 172 134 1207
1220 0 61 131 104 82 1230
1221 0 61 132 105 83 -1
1222 0 61 133 105 84 1239
1223 0 61 133 104 84 -1
1224 0 61 132 103 84 1233
1225 0 61 131 104 84 1234
1226 0 61 131 103 84 1231
1227 0 61 131 103 85 -1
1228 0 61 132 102 85 1238
1229 0 61 131 102 84 -1
1230 1 61 130 103 83 1220
1231 1 61 130 104 84 1226
1232 1 61 131 105 84 -1
1233 1 61 132 104 84 1224
1234 1 61 132 105 85 1225
1235 1 61 131 105 85 -1
1236 1 61 131 104 86 -1
1237 1 61 131 104 87 -1
1238 1 61 132 103 86 1228
1239 1 61 133 104 85 1222
1240 0 62 17 106 110 1254
1241 0 62 16 105 111 -1
1242 0 62 16 106 112 1250
1243 0 62 15 105 111 1253
1244 0 62 14 106 111 -1
1245 0 62 13 107 112 1256
1246 0 62 14 106 113 1251
1247 0 62 14 106 112 1255
1248 0 62 14 107 112 1252
1249 0 62 15 106 113 1258
1250 1 62 15 105 112 1242
1251 1 62 15 105 113 1246
1252 1 62 15 106 112 1248
1253 1 62 15 106 111 1243
1254 1 62 16 106 110 1240
1255 1 62 15 107 111 1247
1256 1 62 14 108 112 1245
1257 1 62 15 108 113 -1
1258 1 62 16 107 112 1249
1259 1 62 17 106 113 -1
1260 0 63 25 1 186 -1
1261 0 63 26 2 187 -1
1262 0 63 27 3 188 1278
1263 0 63 28 4 188 1277
1264 0 63 27 4 187 1270
1265 0 63 26 4 188 1275
1266 0 63 26 5 187 1271
1267 0 63 26 4 187 1272
1268 0 63 26 4 186 1273
1269 0 63 25 3 186 -1
1270 1 63 26 3 187 1264
1271 1 63 25 4 187 1266
1272 1 63 26 3 186 1267
1273 1 63 27 3 187 1268
1274 1 63 28 4 186 -1
1275 1 63 27 5 187 1265
1276 1 63 28 5 187 -1
1277 1 63 27 4 188 1263