LAMMPS Description

10000	atoms
19000	bonds
0	angles
0	dihedrals
0	impropers

6	atom types
1	bond types
0	angle types

0 200 xlo xhi
0 200 ylo yhi
0 200 zlo zhi

Masses

1	1.0
2	1.0
3	1.0
4	1.0
5	1.0
6	1.0

Atoms

0 0 0 0.0 136 25 83
1 0 0 0.0 137 26 82
2 0 0 0.0 136 26 83
3 0 0 0.0 136 27 84
4 0 0 0.0 135 27 84
5 0 0 0.0 136 28 84
6 0 0 0.0 136 27 85
7 0 0 0.0 135 27 86
8 0 0 0.0 136 26 87
9 0 0 0.0 136 25 87
10 0 1 0.0 137 25 87
11 0 1 0.0 136 25 86
12 0 1 0.0 135 24 86
13 0 1 0.0 135 25 85
14 0 1 0.0 134 24 84
15 0 1 0.0 133 25 84
16 0 1 0.0 134 26 83
17 0 1 0.0 135 26 82
18 0 1 0.0 134 25 81
19 0 1 0.0 135 25 82
20 1 0 0.0 9 99 106
21 1 0 0.0 9 98 105
22 1 0 0.0 8 99 104
23 1 0 0.0 7 98 104
24 1 0 0.0 6 97 103
25 1 0 0.0 7 96 104
26 1 0 0.0 8 96 105
27 1 0 0.0 7 95 105
28 1 0 0.0 6 95 106
29 1 0 0.0 5 95 106
30 1 1 0.0 6 95 105
31 1 1 0.0 5 94 106
32 1 1 0.0 5 93 106
33 1 1 0.0 6 93 107
34 1 1 0.0 6 94 106
35 1 1 0.0 6 95 107
36 1 1 0.0 7 95 106
37 1 1 0.0 6 96 107
38 1 1 0.0 6 95 108
39 1 1 0.0 7 95 107
40 2 0 0.0 190 142 0
41 2 0 0.0 189 141 1
42 2 0 0.0 188 142 0
43 2 0 0.0 188 142 199
44 2 0 0.0 188 141 0
45 2 0 0.0 188 142 1
46 2 0 0.0 188 141 2
47 2 0 0.0 189 140 1
48 2 0 0.0 188 141 1
49 2 0 0.0 187 141 0
50 2 1 0.0 187 140 0
51 2 1 0.0 188 140 1
52 2 1 0.0 187 140 2
53 2 1 0.0 186 139 1
54 2 1 0.0 185 140 1
55 2 1 0.0 186 139 2
56 2 1 0.0 187 140 1
57 2 1 0.0 187 139 1
58 2 1 0.0 188 140 0
59 2 1 0.0 189 141 199
60 3 0 0.0 163 13 193
61 3 0 0.0 164 13 193
62 3 0 0.0 164 12 193
63 3 0 0.0 165 12 194
64 3 0 0.0 166 11 194
65 3 0 0.0 167 10 195
66 3 0 0.0 167 11 194
67 3 0 0.0 167 10 193
68 3 0 0.0 168 10 194
69 3 0 0.0 168 10 195
70 3 1 0.0 168 9 194
71 3 1 0.0 169 8 194
72 3 1 0.0 168 9 195
73 3 1 0.0 167 10 194
74 3 1 0.0 168 11 194
75 3 1 0.0 169 11 195
76 3 1 0.0 170 12 196
77 3 1 0.0 171 13 196
78 3 1 0.0 172 12 197
79 3 1 0.0 173 12 196
80 4 0 0.0 183 90 193
81 4 0 0.0 182 91 192
82 4 0 0.0 182 92 191
83 4 0 0.0 183 91 192
84 4 0 0.0 183 92 192
85 4 0 0.0 183 91 191
86 4 0 0.0 182 92 190
87 4 0 0.0 181 91 190
88 4 0 0.0 181 92 190
89 4 0 0.0 182 93 190
90 4 1 0.0 181 93 189
91 4 1 0.0 181 94 189
92 4 1 0.0 181 93 188
93 4 1 0.0 180 94 188
94 4 1 0.0 180 93 188
95 4 1 0.0 179 92 189
96 4 1 0.0 178 92 190
97 4 1 0.0 179 92 190
98 4 1 0.0 178 93 191
99 4 1 0.0 177 94 191
100 5 0 0.0 138 173 153
101 5 0 0.0 139 173 153
102 5 0 0.0 139 174 153
103 5 0 0.0 138 173 154
104 5 0 0.0 139 172 153
105 5 0 0.0 139 171 154
106 5 0 0.0 139 170 154
107 5 0 0.0 138 169 154
108 5 0 0.0 139 168 155
109 5 0 0.0 140 167 155
110 5 1 0.0 139 166 154
111 5 1 0.0 140 165 155
112 5 1 0.0 140 166 156
113 5 1 0.0 141 165 157
114 5 1 0.0 140 166 157
115 5 1 0.0 139 166 158
116 5 1 0.0 139 167 157
117 5 1 0.0 138 168 158
118 5 1 0.0 138 168 159
119 5 1 0.0 137 169 159
120 6 0 0.0 17 161 198
121 6 0 0.0 16 161 199
122 6 0 0.0 16 162 0
123 6 0 0.0 15 161 199
124 6 0 0.0 14 160 198
125 6 0 0.0 14 160 199
126 6 0 0.0 15 159 199
127 6 0 0.0 14 159 198
128 6 0 0.0 15 160 198
129 6 0 0.0 14 159 199
130 6 1 0.0 14 158 198
131 6 1 0.0 14 158 199
132 6 1 0.0 14 157 0
133 6 1 0.0 15 156 199
134 6 1 0.0 16 157 198
135 6 1 0.0 17 158 197
136 6 1 0.0 16 157 197
137 6 1 0.0 15 157 197
138 6 1 0.0 14 157 198
139 6 1 0.0 13 158 197
140 7 0 0.0 142 47 74
141 7 0 0.0 141 46 75
142 7 0 0.0 141 46 76
143 7 0 0.0 141 46 77
144 7 0 0.0 141 46 78
145 7 0 0.0 141 46 79
146 7 0 0.0 140 46 80
147 7 0 0.0 140 45 79
148 7 0 0.0 139 46 80
149 7 0 0.0 139 45 79
150 7 1 0.0 138 44 79
151 7 1 0.0 139 44 78
152 7 1 0.0 140 43 79
153 7 1 0.0 141 44 79
154 7 1 0.0 142 44 78
155 7 1 0.0 142 44 79
156 7 1 0.0 142 45 79
157 7 1 0.0 141 44 78
158 7 1 0.0 142 45 77
159 7 1 0.0 141 44 76
160 8 0 0.0 197 22 153
161 8 0 0.0 196 23 152
162 8 0 0.0 197 23 153
163 8 0 0.0 197 24 154
164 8 0 0.0 197 23 154
165 8 0 0.0 197 24 155
166 8 0 0.0 196 24 156
167 8 0 0.0 195 25 155
168 8 0 0.0 194 26 156
169 8 0 0.0 195 25 157
170 8 1 0.0 196 25 158
171 8 1 0.0 195 24 158
172 8 1 0.0 194 25 157
173 8 1 0.0 193 25 158
174 8 1 0.0 194 26 158
175 8 1 0.0 195 26 157
176 8 1 0.0 196 26 156
177 8 1 0.0 195 26 155
178 8 1 0.0 196 26 155
179 8 1 0.0 197 26 156
180 9 0 0.0 187 63 125
181 9 0 0.0 188 64 124
182 9 0 0.0 187 64 123
183 9 0 0.0 188 65 124
184 9 0 0.0 189 66 125
185 9 0 0.0 189 67 124
186 9 0 0.0 188 68 124
187 9 0 0.0 187 69 124
188 9 0 0.0 187 70 125
189 9 0 0.0 186 70 125
190 9 1 0.0 185 71 126
191 9 1 0.0 186 71 125
192 9 1 0.0 187 71 126
193 9 1 0.0 187 70 126
194 9 1 0.0 188 69 125
195 9 1 0.0 189 68 126
196 9 1 0.0 190 67 126
197 9 1 0.0 190 66 125
198 9 1 0.0 191 67 125
199 9 1 0.0 191 66 124
200 10 0 0.0 29 189 116
201 10 0 0.0 30 189 117
202 10 0 0.0 29 188 116
203 10 0 0.0 30 189 116
204 10 0 0.0 31 189 117
205 10 0 0.0 31 188 117
206 10 0 0.0 32 187 117
207 10 0 0.0 32 187 118
208 10 0 0.0 33 187 117
209 10 0 0.0 32 186 116
210 10 1 0.0 33 186 115
211 10 1 0.0 34 186 116
212 10 1 0.0 34 186 117
213 10 1 0.0 35 186 117
214 10 1 0.0 35 186 118
215 10 1 0.0 36 187 117
216 10 1 0.0 35 188 118
217 10 1 0.0 34 189 117
218 10 1 0.0 34 190 116
219 10 1 0.0 34 191 117
220 11 0 0.0 89 86 75
221 11 0 0.0 90 85 76
222 11 0 0.0 90 86 76
223 11 0 0.0 90 87 77
224 11 0 0.0 89 86 76
225 11 0 0.0 88 87 75
226 11 0 0.0 87 88 74
227 11 0 0.0 87 88 75
228 11 0 0.0 88 87 76
229 11 0 0.0 89 87 76
230 11 1 0.0 90 88 75
231 11 1 0.0 89 88 74
232 11 1 0.0 90 87 73
233 11 1 0.0 91 86 74
234 11 1 0.0 91 86 73
235 11 1 0.0 90 86 73
236 11 1 0.0 90 85 74
237 11 1 0.0 90 86 75
238 11 1 0.0 91 85 75
239 11 1 0.0 92 84 74
240 12 0 0.0 89 65 84
241 12 0 0.0 90 64 85
242 12 0 0.0 90 65 84
243 12 0 0.0 91 66 84
244 12 0 0.0 91 66 83
245 12 0 0.0 92 65 84
246 12 0 0.0 93 65 85
247 12 0 0.0 93 66 84
248 12 0 0.0 92 67 83
249 12 0 0.0 93 68 83
250 12 1 0.0 94 67 84
251 12 1 0.0 94 68 85
252 12 1 0.0 93 68 85
253 12 1 0.0 92 68 86
254 12 1 0.0 93 69 86
255 12 1 0.0 93 70 87
256 12 1 0.0 93 71 87
257 12 1 0.0 92 70 88
258 12 1 0.0 92 69 88
259 12 1 0.0 91 69 89
260 13 0 0.0 128 125 99
261 13 0 0.0 129 125 98
262 13 0 0.0 129 126 97
263 13 0 0.0 129 127 98
264 13 0 0.0 128 127 99
265 13 0 0.0 129 128 99
266 13 0 0.0 129 129 98
267 13 0 0.0 128 129 98
268 13 0 0.0 129 129 97
269 13 0 0.0 130 129 98
270 13 1 0.0 130 128 98
271 13 1 0.0 131 129 98
272 13 1 0.0 132 129 98
273 13 1 0.0 133 130 99
274 13 1 0.0 134 131 99
275 13 1 0.0 133 131 99
276 13 1 0.0 133 131 98
277 13 1 0.0 133 132 99
278 13 1 0.0 133 133 98
279 13 1 0.0 133 134 99
280 14 0 0.0 29 4 116
281 14 0 0.0 30 4 116
282 14 0 0.0 30 4 115
283 14 0 0.0 31 4 114
284 14 0 0.0 31 4 115
285 14 0 0.0 30 5 115
286 14 0 0.0 31 5 114
287 14 0 0.0 30 6 115
288 14 0 0.0 31 6 114
289 14 0 0.0 30 7 113
290 14 1 0.0 29 6 113
291 14 1 0.0 29 7 112
292 14 1 0.0 28 7 113
293 14 1 0.0 28 6 112
294 14 1 0.0 28 5 113
295 14 1 0.0 29 4 113
296 14 1 0.0 29 3 112
297 14 1 0.0 29 2 112
298 14 1 0.0 29 1 112
299 14 1 0.0 29 0 112
300 15 0 0.0 59 18 41
301 15 0 0.0 60 17 40
302 15 0 0.0 60 17 41
303 15 0 0.0 61 18 41
304 15 0 0.0 62 18 42
305 15 0 0.0 62 18 43
306 15 0 0.0 61 17 44
307 15 0 0.0 60 17 43
308 15 0 0.0 61 17 43
309 15 0 0.0 61 16 42
310 15 1 0.0 60 16 41
311 15 1 0.0 59 15 40
312 15 1 0.0 59 16 41
313 15 1 0.0 58 17 42
314 15 1 0.0 57 17 41
315 15 1 0.0 58 16 42
316 15 1 0.0 59 17 42
317 15 1 0.0 60 18 41
318 15 1 0.0 61 17 40
319 15 1 0.0 60 17 39
320 16 0 0.0 86 9 56
321 16 0 0.0 87 8 57
322 16 0 0.0 87 7 57
323 16 0 0.0 86 8 58
324 16 0 0.0 86 9 59
325 16 0 0.0 87 9 60
326 16 0 0.0 86 8 61
327 16 0 0.0 86 8 60
328 16 0 0.0 85 9 60
329 16 0 0.0 84 8 60
330 16 1 0.0 84 7 60
331 16 1 0.0 83 7 60
332 16 1 0.0 83 6 60
333 16 1 0.0 83 7 61
334 16 1 0.0 82 7 61
335 16 1 0.0 83 8 60
336 16 1 0.0 83 9 60
337 16 1 0.0 83 8 59
338 16 1 0.0 84 7 58
339 16 1 0.0 84 8 59
340 17 0 0.0 64 14 34
341 17 0 0.0 63 15 35
342 17 0 0.0 63 16 36
343 17 0 0.0 64 16 35
344 17 0 0.0 64 16 36
345 17 0 0.0 63 15 36
346 17 0 0.0 64 15 35
347 17 0 0.0 65 16 36
348 17 0 0.0 65 15 37
349 17 0 0.0 66 14 38
350 17 1 0.0 67 15 38
351 17 1 0.0 68 16 37
352 17 1 0.0 67 15 37
353 17 1 0.0 68 14 37
354 17 1 0.0 69 14 36
355 17 1 0.0 70 14 37
356 17 1 0.0 71 13 38
357 17 1 0.0 70 13 37
358 17 1 0.0 69 13 36
359 17 1 0.0 70 13 35
360 18 0 0.0 119 187 148
361 18 0 0.0 118 186 147
362 18 0 0.0 119 185 147
363 18 0 0.0 118 186 146
364 18 0 0.0 119 186 146
365 18 0 0.0 120 186 146
366 18 0 0.0 120 185 146
367 18 0 0.0 121 185 145
368 18 0 0.0 122 185 145
369 18 0 0.0 121 184 144
370 18 1 0.0 120 184 145
371 18 1 0.0 119 183 144
372 18 1 0.0 118 183 145
373 18 1 0.0 117 182 146
374 18 1 0.0 118 183 146
375 18 1 0.0 119 184 145
376 18 1 0.0 119 183 145
377 18 1 0.0 119 184 144
378 18 1 0.0 119 183 143
379 18 1 0.0 120 182 143
380 19 0 0.0 93 192 82
381 19 0 0.0 94 192 82
382 19 0 0.0 95 191 81
383 19 0 0.0 95 190 80
384 19 0 0.0 96 191 79
385 19 0 0.0 95 191 79
386 19 0 0.0 95 192 78
387 19 0 0.0 95 191 78
388 19 0 0.0 95 190 78
389 19 0 0.0 94 190 78
390 19 1 0.0 94 190 79
391 19 1 0.0 93 191 79
392 19 1 0.0 93 190 79
393 19 1 0.0 94 189 79
394 19 1 0.0 95 189 78
395 19 1 0.0 96 188 77
396 19 1 0.0 97 189 77
397 19 1 0.0 96 188 78
398 19 1 0.0 97 189 78
399 19 1 0.0 96 190 77
400 20 0 0.0 100 182 152
401 20 0 0.0 99 183 151
402 20 0 0.0 100 183 151
403 20 0 0.0 101 182 152
404 20 0 0.0 100 181 152
405 20 0 0.0 99 180 153
406 20 0 0.0 100 179 153
407 20 0 0.0 100 179 154
408 20 0 0.0 99 179 154
409 20 0 0.0 99 180 154
410 20 1 0.0 98 180 153
411 20 1 0.0 98 179 154
412 20 1 0.0 97 178 154
413 20 1 0.0 98 179 155
414 20 1 0.0 98 178 155
415 20 1 0.0 97 177 154
416 20 1 0.0 96 177 155
417 20 1 0.0 96 178 155
418 20 1 0.0 95 178 154
419 20 1 0.0 95 178 153
420 21 0 0.0 13 121 9
421 21 0 0.0 12 120 8
422 21 0 0.0 13 120 9
423 21 0 0.0 13 119 10
424 21 0 0.0 12 118 10
425 21 0 0.0 11 117 9
426 21 0 0.0 11 116 8
427 21 0 0.0 12 117 8
428 21 0 0.0 11 118 8
429 21 0 0.0 10 119 8
430 21 1 0.0 10 118 8
431 21 1 0.0 9 119 9
432 21 1 0.0 8 118 9
433 21 1 0.0 8 118 10
434 21 1 0.0 7 119 9
435 21 1 0.0 7 120 9
436 21 1 0.0 8 119 9
437 21 1 0.0 9 120 9
438 21 1 0.0 8 119 10
439 21 1 0.0 9 120 10
440 22 0 0.0 52 67 13
441 22 0 0.0 51 68 14
442 22 0 0.0 52 68 14
443 22 0 0.0 52 68 15
444 22 0 0.0 53 69 15
445 22 0 0.0 53 70 14
446 22 0 0.0 54 70 15
447 22 0 0.0 53 71 14
448 22 0 0.0 52 71 15
449 22 0 0.0 53 71 16
450 22 1 0.0 52 72 17
451 22 1 0.0 53 71 17
452 22 1 0.0 52 72 18
453 22 1 0.0 51 72 18
454 22 1 0.0 52 73 18
455 22 1 0.0 53 73 17
456 22 1 0.0 54 74 16
457 22 1 0.0 53 75 17
458 22 1 0.0 52 76 17
459 22 1 0.0 53 77 16
460 23 0 0.0 167 115 3
461 23 0 0.0 166 115 2
462 23 0 0.0 166 116 3
463 23 0 0.0 165 117 3
464 23 0 0.0 164 118 2
465 23 0 0.0 165 119 3
466 23 0 0.0 164 118 4
467 23 0 0.0 164 117 5
468 23 0 0.0 164 116 5
469 23 0 0.0 163 116 4
470 23 1 0.0 164 115 3
471 23 1 0.0 164 115 4
472 23 1 0.0 165 116 5
473 23 1 0.0 166 117 5
474 23 1 0.0 165 118 6
475 23 1 0.0 164 119 7
476 23 1 0.0 163 119 6
477 23 1 0.0 164 118 6
478 23 1 0.0 163 118 7
479 23 1 0.0 163 117 8
480 24 0 0.0 194 175 182
481 24 0 0.0 195 175 182
482 24 0 0.0 195 174 183
483 24 0 0.0 194 173 183
484 24 0 0.0 193 173 182
485 24 0 0.0 194 174 181
486 24 0 0.0 194 175 181
487 24 0 0.0 193 176 181
488 24 0 0.0 192 176 181
489 24 0 0.0 193 176 182
490 24 1 0.0 194 177 181
491 24 1 0.0 194 178 181
492 24 1 0.0 193 179 180
493 24 1 0.0 193 180 179
494 24 1 0.0 194 180 178
495 24 1 0.0 194 179 179
496 24 1 0.0 193 179 178
497 24 1 0.0 193 179 179
498 24 1 0.0 193 180 180
499 24 1 0.0 192 180 180
500 25 0 0.0 50 176 156
501 25 0 0.0 51 176 157
502 25 0 0.0 50 175 156
503 25 0 0.0 49 174 156
504 25 0 0.0 49 175 157
505 25 0 0.0 49 176 157
506 25 0 0.0 50 177 156
507 25 0 0.0 51 176 155
508 25 0 0.0 52 177 156
509 25 0 0.0 53 178 156
510 25 1 0.0 54 179 157
511 25 1 0.0 55 178 156
512 25 1 0.0 55 179 157
513 25 1 0.0 55 179 158
514 25 1 0.0 56 178 159
515 25 1 0.0 57 179 159
516 25 1 0.0 57 180 159
517 25 1 0.0 56 179 158
518 25 1 0.0 57 178 159
519 25 1 0.0 58 179 159
520 26 0 0.0 148 5 135
521 26 0 0.0 147 6 135
522 26 0 0.0 146 5 135
523 26 0 0.0 145 6 134
524 26 0 0.0 144 6 133
525 26 0 0.0 145 6 133
526 26 0 0.0 145 5 132
527 26 0 0.0 144 5 132
528 26 0 0.0 143 5 133
529 26 0 0.0 142 4 134
530 26 1 0.0 142 4 135
531 26 1 0.0 141 5 135
532 26 1 0.0 140 4 136
533 26 1 0.0 141 4 136
534 26 1 0.0 140 5 135
535 26 1 0.0 139 5 136
536 26 1 0.0 139 4 137
537 26 1 0.0 138 4 137
538 26 1 0.0 139 3 136
539 26 1 0.0 140 4 135
540 27 0 0.0 30 81 178
541 27 0 0.0 31 81 177
542 27 0 0.0 32 80 177
543 27 0 0.0 31 79 176
544 27 0 0.0 31 80 175
545 27 0 0.0 31 81 176
546 27 0 0.0 30 80 175
547 27 0 0.0 30 81 175
548 27 0 0.0 31 82 175
549 27 0 0.0 32 82 176
550 27 1 0.0 33 82 176
551 27 1 0.0 32 82 177
552 27 1 0.0 33 83 176
553 27 1 0.0 33 83 175
554 27 1 0.0 33 84 176
555 27 1 0.0 32 84 177
556 27 1 0.0 32 83 178
557 27 1 0.0 32 84 179
558 27 1 0.0 33 84 180
559 27 1 0.0 33 85 179
560 28 0 0.0 90 163 193
561 28 0 0.0 91 164 194
562 28 0 0.0 92 163 193
563 28 0 0.0 92 162 193
564 28 0 0.0 92 161 193
565 28 0 0.0 93 161 194
566 28 0 0.0 93 160 194
567 28 0 0.0 93 159 193
568 28 0 0.0 93 160 192
569 28 0 0.0 93 160 191
570 28 1 0.0 92 160 190
571 28 1 0.0 92 160 189
572 28 1 0.0 92 159 190
573 28 1 0.0 91 160 189
574 28 1 0.0 92 161 190
575 28 1 0.0 91 160 191
576 28 1 0.0 91 161 190
577 28 1 0.0 90 160 191
578 28 1 0.0 89 161 191
579 28 1 0.0 88 161 190
580 29 0 0.0 71 4 42
581 29 0 0.0 72 4 43
582 29 0 0.0 73 4 43
583 29 0 0.0 74 3 44
584 29 0 0.0 74 2 43
585 29 0 0.0 74 1 42
586 29 0 0.0 75 1 41
587 29 0 0.0 74 0 41
588 29 0 0.0 74 1 41
589 29 0 0.0 73 1 42
590 29 1 0.0 73 2 42
591 29 1 0.0 74 3 43
592 29 1 0.0 75 4 42
593 29 1 0.0 75 5 41
594 29 1 0.0 74 4 41
595 29 1 0.0 75 5 40
596 29 1 0.0 75 6 41
597 29 1 0.0 75 5 42
598 29 1 0.0 75 4 43
599 29 1 0.0 76 5 44
600 30 0 0.0 149 186 120
601 30 0 0.0 150 186 120
602 30 0 0.0 149 187 120
603 30 0 0.0 149 186 119
604 30 0 0.0 150 185 120
605 30 0 0.0 149 185 120
606 30 0 0.0 150 185 121
607 30 0 0.0 151 186 120
608 30 0 0.0 152 186 119
609 30 0 0.0 151 187 119
610 30 1 0.0 150 188 118
611 30 1 0.0 150 187 117
612 30 1 0.0 149 186 118
613 30 1 0.0 150 186 117
614 30 1 0.0 150 185 116
615 30 1 0.0 149 184 116
616 30 1 0.0 148 185 116
617 30 1 0.0 148 185 115
618 30 1 0.0 149 185 116
619 30 1 0.0 148 184 117
620 31 0 0.0 88 26 17
621 31 0 0.0 88 25 18
622 31 0 0.0 88 25 17
623 31 0 0.0 89 26 17
624 31 0 0.0 89 25 16
625 31 0 0.0 88 25 15
626 31 0 0.0 88 25 14
627 31 0 0.0 88 24 14
628 31 0 0.0 89 24 14
629 31 0 0.0 88 23 14
630 31 1 0.0 88 22 14
631 31 1 0.0 87 22 13
632 31 1 0.0 86 21 14
633 31 1 0.0 86 22 13
634 31 1 0.0 87 22 14
635 31 1 0.0 86 21 15
636 31 1 0.0 86 22 15
637 31 1 0.0 86 23 14
638 31 1 0.0 86 23 15
639 31 1 0.0 87 22 16
640 32 0 0.0 28 113 173
641 32 0 0.0 28 114 173
642 32 0 0.0 27 114 174
643 32 0 0.0 26 114 174
644 32 0 0.0 25 114 174
645 32 0 0.0 24 113 173
646 32 0 0.0 23 113 174
647 32 0 0.0 24 113 175
648 32 0 0.0 25 113 175
649 32 0 0.0 24 113 174
650 32 1 0.0 23 114 173
651 32 1 0.0 22 113 174
652 32 1 0.0 21 113 173
653 32 1 0.0 21 113 172
654 32 1 0.0 22 114 173
655 32 1 0.0 23 115 173
656 32 1 0.0 24 115 174
657 32 1 0.0 23 115 175
658 32 1 0.0 24 116 174
659 32 1 0.0 23 117 174
660 33 0 0.0 43 17 107
661 33 0 0.0 44 17 108
662 33 0 0.0 43 16 109
663 33 0 0.0 44 15 110
664 33 0 0.0 44 16 110
665 33 0 0.0 44 15 109
666 33 0 0.0 43 14 108
667 33 0 0.0 43 13 107
668 33 0 0.0 42 14 107
669 33 0 0.0 42 15 107
670 33 1 0.0 43 16 107
671 33 1 0.0 42 17 108
672 33 1 0.0 41 18 108
673 33 1 0.0 40 18 109
674 33 1 0.0 40 19 110
675 33 1 0.0 40 19 111
676 33 1 0.0 41 20 111
677 33 1 0.0 40 20 111
678 33 1 0.0 41 19 111
679 33 1 0.0 42 19 111
680 34 0 0.0 94 13 104
681 34 0 0.0 93 12 103
682 34 0 0.0 93 13 103
683 34 0 0.0 93 12 102
684 34 0 0.0 93 11 101
685 34 0 0.0 92 12 102
686 34 0 0.0 91 13 102
687 34 0 0.0 91 12 101
688 34 0 0.0 92 11 102
689 34 0 0.0 92 10 103
690 34 1 0.0 93 11 104
691 34 1 0.0 94 10 103
692 34 1 0.0 93 10 103
693 34 1 0.0 93 11 102
694 34 1 0.0 94 10 102
695 34 1 0.0 95 10 103
696 34 1 0.0 95 11 104
697 34 1 0.0 94 12 103
698 34 1 0.0 94 11 104
699 34 1 0.0 95 10 105
700 35 0 0.0 27 86 127
701 35 0 0.0 27 86 128
702 35 0 0.0 26 86 129
703 35 0 0.0 25 87 128
704 35 0 0.0 25 86 129
705 35 0 0.0 26 87 128
706 35 0 0.0 26 87 127
707 35 0 0.0 25 87 126
708 35 0 0.0 24 87 127
709 35 0 0.0 24 87 128
710 35 1 0.0 24 88 127
711 35 1 0.0 24 89 128
712 35 1 0.0 24 88 129
713 35 1 0.0 24 89 130
714 35 1 0.0 24 90 130
715 35 1 0.0 25 90 129
716 35 1 0.0 26 91 130
717 35 1 0.0 27 90 130
718 35 1 0.0 28 90 131
719 35 1 0.0 28 89 132
720 36 0 0.0 33 154 126
721 36 0 0.0 33 155 125
722 36 0 0.0 32 154 125
723 36 0 0.0 31 155 125
724 36 0 0.0 32 155 124
725 36 0 0.0 31 154 125
726 36 0 0.0 32 153 126
727 36 0 0.0 32 152 125
728 36 0 0.0 32 153 125
729 36 0 0.0 32 154 124
730 36 1 0.0 32 154 123
731 36 1 0.0 33 155 124
732 36 1 0.0 32 156 125
733 36 1 0.0 32 156 126
734 36 1 0.0 31 156 125
735 36 1 0.0 30 155 125
736 36 1 0.0 29 154 125
737 36 1 0.0 29 153 126
738 36 1 0.0 30 152 127
739 36 1 0.0 31 153 128
740 37 0 0.0 183 33 55
741 37 0 0.0 184 32 55
742 37 0 0.0 183 31 56
743 37 0 0.0 182 31 57
744 37 0 0.0 182 32 56
745 37 0 0.0 183 32 57
746 37 0 0.0 183 33 56
747 37 0 0.0 182 33 55
748 37 0 0.0 181 33 55
749 37 0 0.0 182 32 54
750 37 1 0.0 181 31 53
751 37 1 0.0 182 30 53
752 37 1 0.0 181 30 53
753 37 1 0.0 181 31 52
754 37 1 0.0 180 31 53
755 37 1 0.0 179 32 53
756 37 1 0.0 178 31 53
757 37 1 0.0 177 32 52
758 37 1 0.0 178 33 52
759 37 1 0.0 178 34 51
760 38 0 0.0 158 192 156
761 38 0 0.0 159 193 157
762 38 0 0.0 158 192 157
763 38 0 0.0 157 192 157
764 38 0 0.0 156 193 156
765 38 0 0.0 155 194 157
766 38 0 0.0 155 193 156
767 38 0 0.0 156 192 157
768 38 0 0.0 155 191 158
769 38 0 0.0 154 191 158
770 38 1 0.0 153 190 158
771 38 1 0.0 153 189 158
772 38 1 0.0 152 189 157
773 38 1 0.0 152 189 158
774 38 1 0.0 153 189 157
775 38 1 0.0 154 190 156
776 38 1 0.0 154 191 155
777 38 1 0.0 153 190 154
778 38 1 0.0 154 191 154
779 38 1 0.0 153 192 153
780 39 0 0.0 114 134 129
781 39 0 0.0 113 134 129
782 39 0 0.0 113 134 128
783 39 0 0.0 112 133 129
784 39 0 0.0 111 132 128
785 39 0 0.0 111 133 127
786 39 0 0.0 111 133 126
787 39 0 0.0 111 134 125
788 39 0 0.0 110 135 124
789 39 0 0.0 110 134 125
790 39 1 0.0 110 134 126
791 39 1 0.0 109 133 126
792 39 1 0.0 110 133 125
793 39 1 0.0 111 133 125
794 39 1 0.0 112 133 125
795 39 1 0.0 113 132 125
796 39 1 0.0 113 133 124
797 39 1 0.0 113 133 125
798 39 1 0.0 114 134 126
799 39 1 0.0 113 135 127
800 40 0 0.0 150 162 198
801 40 0 0.0 150 163 197
802 40 0 0.0 151 164 198
803 40 0 0.0 150 164 199
804 40 0 0.0 151 165 0
805 40 0 0.0 150 164 1
806 40 0 0.0 150 164 2
807 40 0 0.0 149 165 1
808 40 0 0.0 148 166 2
809 40 0 0.0 149 165 2
810 40 1 0.0 150 166 2
811 40 1 0.0 149 167 2
812 40 1 0.0 148 166 1
813 40 1 0.0 149 165 0
814 40 1 0.0 150 166 1
815 40 1 0.0 150 165 1
816 40 1 0.0 151 164 1
817 40 1 0.0 152 165 1
818 40 1 0.0 151 166 2
819 40 1 0.0 152 167 3
820 41 0 0.0 3 64 154
821 41 0 0.0 4 63 153
822 41 0 0.0 4 64 152
823 41 0 0.0 3 65 153
824 41 0 0.0 4 66 153
825 41 0 0.0 4 65 154
826 41 0 0.0 3 64 153
827 41 0 0.0 2 64 152
828 41 0 0.0 3 63 151
829 41 0 0.0 4 63 150
830 41 1 0.0 5 63 150
831 41 1 0.0 6 64 150
832 41 1 0.0 7 65 149
833 41 1 0.0 6 64 148
834 41 1 0.0 6 65 147
835 41 1 0.0 7 64 146
836 41 1 0.0 8 65 147
837 41 1 0.0 7 66 147
838 41 1 0.0 7 67 147
839 41 1 0.0 7 66 148
840 42 0 0.0 133 94 145
841 42 0 0.0 133 94 146
842 42 0 0.0 132 95 147
843 42 0 0.0 131 95 147
844 42 0 0.0 132 94 148
845 42 0 0.0 133 93 149
846 42 0 0.0 132 94 150
847 42 0 0.0 131 95 151
848 42 0 0.0 131 96 151
849 42 0 0.0 130 96 152
850 42 1 0.0 129 95 151
851 42 1 0.0 128 96 152
852 42 1 0.0 127 96 153
853 42 1 0.0 126 96 153
854 42 1 0.0 127 96 154
855 42 1 0.0 127 96 155
856 42 1 0.0 127 97 156
857 42 1 0.0 126 98 157
858 42 1 0.0 127 98 157
859 42 1 0.0 128 99 158
860 43 0 0.0 112 192 2
861 43 0 0.0 111 192 2
862 43 0 0.0 110 192 3
863 43 0 0.0 109 193 4
864 43 0 0.0 110 194 4
865 43 0 0.0 110 193 5
866 43 0 0.0 109 194 6
867 43 0 0.0 108 195 6
868 43 0 0.0 109 194 5
869 43 0 0.0 110 193 6
870 43 1 0.0 111 194 5
871 43 1 0.0 110 195 6
872 43 1 0.0 109 195 7
873 43 1 0.0 110 196 6
874 43 1 0.0 111 195 7
875 43 1 0.0 112 194 8
876 43 1 0.0 111 194 8
877 43 1 0.0 112 194 7
878 43 1 0.0 112 193 8
879 43 1 0.0 112 194 9
880 44 0 0.0 61 74 21
881 44 0 0.0 60 75 20
882 44 0 0.0 60 74 19
883 44 0 0.0 60 74 20
884 44 0 0.0 59 75 20
885 44 0 0.0 59 74 20
886 44 0 0.0 60 75 19
887 44 0 0.0 61 76 18
888 44 0 0.0 62 75 18
889 44 0 0.0 61 75 17
890 44 1 0.0 60 76 18
891 44 1 0.0 60 76 19
892 44 1 0.0 60 75 18
893 44 1 0.0 61 75 19
894 44 1 0.0 61 74 18
895 44 1 0.0 60 74 18
896 44 1 0.0 61 73 17
897 44 1 0.0 61 72 16
898 44 1 0.0 60 72 17
899 44 1 0.0 59 72 18
900 45 0 0.0 199 117 33
901 45 0 0.0 198 117 33
902 45 0 0.0 197 116 33
903 45 0 0.0 196 117 33
904 45 0 0.0 195 116 32
905 45 0 0.0 195 116 31
906 45 0 0.0 195 117 31
907 45 0 0.0 196 118 30
908 45 0 0.0 196 119 31
909 45 0 0.0 195 118 31
910 45 1 0.0 195 119 32
911 45 1 0.0 194 120 33
912 45 1 0.0 195 121 34
913 45 1 0.0 194 122 33
914 45 1 0.0 193 121 33
915 45 1 0.0 193 122 33
916 45 1 0.0 194 123 33
917 45 1 0.0 193 123 32
918 45 1 0.0 192 123 31
919 45 1 0.0 193 123 30
920 46 0 0.0 104 158 183
921 46 0 0.0 105 157 183
922 46 0 0.0 105 157 182
923 46 0 0.0 106 158 182
924 46 0 0.0 106 157 182
925 46 0 0.0 107 156 181
926 46 0 0.0 108 157 182
927 46 0 0.0 109 158 181
928 46 0 0.0 108 158 182
929 46 0 0.0 107 157 181
930 46 1 0.0 106 156 182
931 46 1 0.0 106 157 181
932 46 1 0.0 105 158 180
933 46 1 0.0 105 157 180
934 46 1 0.0 104 157 181
935 46 1 0.0 104 156 181
936 46 1 0.0 104 155 180
937 46 1 0.0 105 155 179
938 46 1 0.0 106 156 178
939 46 1 0.0 107 155 178
940 47 0 0.0 97 158 167
941 47 0 0.0 98 157 166
942 47 0 0.0 98 156 167
943 47 0 0.0 98 155 166
944 47 0 0.0 97 154 166
945 47 0 0.0 96 155 167
946 47 0 0.0 97 154 167
947 47 0 0.0 96 153 166
948 47 0 0.0 96 152 167
949 47 0 0.0 97 151 166
950 47 1 0.0 97 150 165
951 47 1 0.0 98 151 164
952 47 1 0.0 99 151 163
953 47 1 0.0 100 150 162
954 47 1 0.0 100 149 162
955 47 1 0.0 101 150 163
956 47 1 0.0 100 149 164
957 47 1 0.0 99 149 165
958 47 1 0.0 99 150 164
959 47 1 0.0 100 151 165
960 48 0 0.0 136 178 180
961 48 0 0.0 136 177 179
962 48 0 0.0 135 176 178
963 48 0 0.0 135 177 177
964 48 0 0.0 134 178 178
965 48 0 0.0 134 179 177
966 48 0 0.0 135 179 176
967 48 0 0.0 136 180 175
968 48 0 0.0 135 181 174
969 48 0 0.0 135 182 175
970 48 1 0.0 136 182 174
971 48 1 0.0 135 183 173
972 48 1 0.0 134 183 172
973 48 1 0.0 133 182 173
974 48 1 0.0 133 182 174
975 48 1 0.0 133 183 175
976 48 1 0.0 134 184 175
977 48 1 0.0 133 184 175
978 48 1 0.0 132 183 175
979 48 1 0.0 131 183 175
980 49 0 0.0 2 1 167
981 49 0 0.0 2 1 168
982 49 0 0.0 2 2 168
983 49 0 0.0 1 3 168
984 49 0 0.0 0 3 167
985 49 0 0.0 1 4 166
986 49 0 0.0 0 5 165
987 49 0 0.0 0 4 166
988 49 0 0.0 1 5 165
989 49 0 0.0 2 6 164
990 49 1 0.0 1 6 163
991 49 1 0.0 2 5 163
992 49 1 0.0 2 5 162
993 49 1 0.0 3 6 163
994 49 1 0.0 4 6 163
995 49 1 0.0 3 7 164
996 49 1 0.0 3 7 165
997 49 1 0.0 3 8 165
998 49 1 0.0 4 8 165
999 49 1 0.0 5 8 165
1000 50 0 0.0 199 75 30
1001 50 0 0.0 199 76 31
1002 50 0 0.0 198 75 32
1003 50 0 0.0 198 74 32
1004 50 0 0.0 198 73 31
1005 50 0 0.0 197 73 30
1006 50 0 0.0 196 72 31
1007 50 0 0.0 195 73 31
1008 50 0 0.0 196 74 31
1009 50 0 0.0 195 73 30
1010 50 1 0.0 196 72 29
1011 50 1 0.0 196 72 28
1012 50 1 0.0 195 71 29
1013 50 1 0.0 195 70 28
1014 50 1 0.0 196 71 27
1015 50 1 0.0 197 72 26
1016 50 1 0.0 197 73 25
1017 50 1 0.0 198 73 24
1018 50 1 0.0 197 72 23
1019 50 1 0.0 198 73 22
1020 51 0 0.0 37 91 177
1021 51 0 0.0 38 91 178
1022 51 0 0.0 38 92 177
1023 51 0 0.0 38 91 176
1024 51 0 0.0 39 90 175
1025 51 0 0.0 38 91 174
1026 51 0 0.0 37 92 174
1027 51 0 0.0 37 93 174
1028 51 0 0.0 37 93 175
1029 51 0 0.0 38 93 175
1030 51 1 0.0 37 94 174
1031 51 1 0.0 38 93 173
1032 51 1 0.0 37 93 173
1033 51 1 0.0 38 94 174
1034 51 1 0.0 39 94 173
1035 51 1 0.0 38 95 174
1036 51 1 0.0 37 96 175
1037 51 1 0.0 38 95 175
1038 51 1 0.0 39 96 176
1039 51 1 0.0 39 95 177
1040 52 0 0.0 48 38 51
1041 52 0 0.0 47 38 51
1042 52 0 0.0 47 37 50
1043 52 0 0.0 46 36 51
1044 52 0 0.0 46 35 52
1045 52 0 0.0 46 35 53
1046 52 0 0.0 45 34 53
1047 52 0 0.0 44 35 53
1048 52 0 0.0 43 35 54
1049 52 0 0.0 44 35 54
1050 52 1 0.0 43 36 55
1051 52 1 0.0 43 36 56
1052 52 1 0.0 43 37 56
1053 52 1 0.0 42 37 57
1054 52 1 0.0 42 38 57
1055 52 1 0.0 43 39 57
1056 52 1 0.0 43 38 56
1057 52 1 0.0 42 37 56
1058 52 1 0.0 41 36 55
1059 52 1 0.0 41 37 55
1060 53 0 0.0 162 183 117
1061 53 0 0.0 163 184 116
1062 53 0 0.0 164 183 115
1063 53 0 0.0 163 184 115
1064 53 0 0.0 163 183 116
1065 53 0 0.0 162 182 116
1066 53 0 0.0 162 183 116
1067 53 0 0.0 162 184 117
1068 53 0 0.0 162 183 118
1069 53 0 0.0 162 183 119
1070 53 1 0.0 161 183 120
1071 53 1 0.0 162 182 121
1072 53 1 0.0 163 182 122
1073 53 1 0.0 164 182 123
1074 53 1 0.0 165 181 124
1075 53 1 0.0 166 181 123
1076 53 1 0.0 165 182 122
1077 53 1 0.0 166 183 121
1078 53 1 0.0 166 182 121
1079 53 1 0.0 165 182 120
1080 54 0 0.0 159 1 173
1081 54 0 0.0 160 2 172
1082 54 0 0.0 161 3 173
1083 54 0 0.0 162 2 173
1084 54 0 0.0 163 3 174
1085 54 0 0.0 164 4 173
1086 54 0 0.0 164 5 173
1087 54 0 0.0 164 6 172
1088 54 0 0.0 165 5 171
1089 54 0 0.0 165 5 172
1090 54 1 0.0 166 5 171
1091 54 1 0.0 166 5 172
1092 54 1 0.0 167 5 173
1093 54 1 0.0 167 4 174
1094 54 1 0.0 166 5 175
1095 54 1 0.0 165 4 175
1096 54 1 0.0 166 5 174
1097 54 1 0.0 167 6 174
1098 54 1 0.0 166 5 173
1099 54 1 0.0 166 6 174
1100 55 0 0.0 184 199 194
1101 55 0 0.0 183 199 195
1102 55 0 0.0 182 0 196
1103 55 0 0.0 182 1 196
1104 55 0 0.0 183 1 195
1105 55 0 0.0 182 2 194
1106 55 0 0.0 182 1 194
1107 55 0 0.0 183 1 194
1108 55 0 0.0 184 2 193
1109 55 0 0.0 183 2 193
1110 55 1 0.0 182 2 193
1111 55 1 0.0 181 3 194
1112 55 1 0.0 181 3 193
1113 55 1 0.0 180 2 194
1114 55 1 0.0 179 1 195
1115 55 1 0.0 179 0 195
1116 55 1 0.0 178 199 194
1117 55 1 0.0 177 199 195
1118 55 1 0.0 178 199 195
1119 55 1 0.0 177 0 194
1120 56 0 0.0 48 150 76
1121 56 0 0.0 48 149 75
1122 56 0 0.0 47 148 75
1123 56 0 0.0 46 147 76
1124 56 0 0.0 47 146 75
1125 56 0 0.0 48 147 75
1126 56 0 0.0 47 148 76
1127 56 0 0.0 47 149 75
1128 56 0 0.0 47 149 76
1129 56 0 0.0 48 148 77
1130 56 1 0.0 47 147 76
1131 56 1 0.0 47 146 77
1132 56 1 0.0 48 145 76
1133 56 1 0.0 48 144 75
1134 56 1 0.0 48 145 75
1135 56 1 0.0 47 144 74
1136 56 1 0.0 46 144 74
1137 56 1 0.0 45 145 75
1138 56 1 0.0 46 146 74
1139 56 1 0.0 47 145 74
1140 57 0 0.0 77 3 134
1141 57 0 0.0 78 4 135
1142 57 0 0.0 78 4 134
1143 57 0 0.0 79 3 134
1144 57 0 0.0 78 4 133
1145 57 0 0.0 78 3 132
1146 57 0 0.0 79 2 133
1147 57 0 0.0 78 2 132
1148 57 0 0.0 77 2 131
1149 57 0 0.0 76 2 130
1150 57 1 0.0 77 1 131
1151 57 1 0.0 76 0 131
1152 57 1 0.0 76 1 132
1153 57 1 0.0 77 0 133
1154 57 1 0.0 77 1 133
1155 57 1 0.0 76 0 132
1156 57 1 0.0 75 0 133
1157 57 1 0.0 75 1 132
1158 57 1 0.0 74 0 131
1159 57 1 0.0 73 199 131
1160 58 0 0.0 116 3 107
1161 58 0 0.0 116 4 106
1162 58 0 0.0 115 4 107
1163 58 0 0.0 116 4 107
1164 58 0 0.0 115 5 107
1165 58 0 0.0 114 4 107
1166 58 0 0.0 114 5 106
1167 58 0 0.0 114 5 105
1168 58 0 0.0 115 5 105
1169 58 0 0.0 116 6 105
1170 58 1 0.0 116 7 106
1171 58 1 0.0 115 6 107
1172 58 1 0.0 116 6 106
1173 58 1 0.0 116 6 107
1174 58 1 0.0 116 5 106
1175 58 1 0.0 115 4 105
1176 58 1 0.0 114 5 104
1177 58 1 0.0 113 6 103
1178 58 1 0.0 114 6 104
1179 58 1 0.0 114 7 103
1180 59 0 0.0 21 34 74
1181 59 0 0.0 20 34 74
1182 59 0 0.0 19 34 75
1183 59 0 0.0 20 35 76
1184 59 0 0.0 21 35 75
1185 59 0 0.0 21 35 74
1186 59 0 0.0 22 36 74
1187 59 0 0.0 23 37 73
1188 59 0 0.0 22 37 72
1189 59 0 0.0 23 36 73
1190 59 1 0.0 24 36 72
1191 59 1 0.0 25 37 71
1192 59 1 0.0 24 37 70
1193 59 1 0.0 23 37 70
1194 59 1 0.0 22 36 70
1195 59 1 0.0 21 37 69
1196 59 1 0.0 22 37 70
1197 59 1 0.0 22 37 71
1198 59 1 0.0 22 36 71
1199 59 1 0.0 21 37 71
1200 60 0 0.0 37 166 59
1201 60 0 0.0 36 165 60
1202 60 0 0.0 37 166 61
1203 60 0 0.0 36 167 61
1204 60 0 0.0 35 166 60
1205 60 0 0.0 34 166 61
1206 60 0 0.0 35 165 60
1207 60 0 0.0 34 164 60
1208 60 0 0.0 33 163 60
1209 60 0 0.0 34 162 60
1210 60 1 0.0 35 162 61
1211 60 1 0.0 35 161 61
1212 60 1 0.0 35 162 62
1213 60 1 0.0 36 163 63
1214 60 1 0.0 35 163 63
1215 60 1 0.0 36 162 63
1216 60 1 0.0 37 161 64
1217 60 1 0.0 37 160 65
1218 60 1 0.0 36 160 66
1219 60 1 0.0 36 159 65
1220 61 0 0.0 119 191 178
1221 61 0 0.0 119 192 177
1222 61 0 0.0 120 191 178
1223 61 0 0.0 121 192 179
1224 61 0 0.0 121 193 178
1225 61 0 0.0 122 194 178
1226 61 0 0.0 121 195 178
1227 61 0 0.0 120 194 179
1228 61 0 0.0 119 194 179
1229 61 0 0.0 119 193 179
1230 61 1 0.0 120 192 179
1231 61 1 0.0 121 191 179
1232 61 1 0.0 122 190 179
1233 61 1 0.0 123 190 178
1234 61 1 0.0 123 191 177
1235 61 1 0.0 124 192 178
1236 61 1 0.0 125 191 178
1237 61 1 0.0 126 192 179
1238 61 1 0.0 126 191 178
1239 61 1 0.0 125 192 179
1240 62 0 0.0 157 115 34
1241 62 0 0.0 156 115 34
1242 62 0 0.0 156 116 33
1243 62 0 0.0 155 115 34
1244 62 0 0.0 154 114 33
1245 62 0 0.0 154 113 33
1246 62 0 0.0 155 113 32
1247 62 0 0.0 156 112 32
1248 62 0 0.0 157 111 33
1249 62 0 0.0 156 110 32
1250 62 1 0.0 155 109 31
1251 62 1 0.0 156 108 32
1252 62 1 0.0 155 109 32
1253 62 1 0.0 155 108 33
1254 62 1 0.0 155 109 33
1255 62 1 0.0 155 108 34
1256 62 1 0.0 155 107 33
1257 62 1 0.0 155 108 32
1258 62 1 0.0 154 107 31
1259 62 1 0.0 154 108 30
1260 63 0 0.0 144 155 192
1261 63 0 0.0 145 154 192
1262 63 0 0.0 145 155 193
1263 63 0 0.0 146 154 193
1264 63 0 0.0 145 153 194
1265 63 0 0.0 146 153 195
1266 63 0 0.0 146 152 196
1267 63 0 0.0 146 152 195
1268 63 0 0.0 146 153 194
1269 63 0 0.0 147 153 193
1270 63 1 0.0 148 152 194
1271 63 1 0.0 149 151 195
1272 63 1 0.0 148 152 195
1273 63 1 0.0 147 152 196
1274 63 1 0.0 148 153 197
1275 63 1 0.0 149 154 197
1276 63 1 0.0 150 153 198
1277 63 1 0.0 151 152 198
1278 63 1 0.0 152 152 199