ITEM: TIMESTEP
0
ITEM: NUMBER OF ATOMS
10000
ITEM: BOX BOUNDS pp pp pp
0 200
0 200
0 200
ITEM: ATOMS id type mol x y z bP
0 0 0 42 114 118 15
1 0 0 42 115 117 17
2 0 0 43 116 118 -1
3 0 0 43 115 119 19
4 0 0 42 116 118 18
5 0 0 42 117 119 -1
6 0 0 42 116 120 11
7 0 0 43 116 121 -1
8 0 0 42 117 121 12
9 0 0 43 116 120 10
10 1 0 42 116 121 9
11 1 0 42 115 120 6
12 1 0 41 116 120 8
13 1 0 40 115 119 -1
14 1 0 41 115 118 -1
15 1 0 42 114 117 0
16 1 0 42 115 118 -1
17 1 0 42 116 117 1
18 1 0 43 116 117 4
19 1 0 44 116 118 3
20 0 1 177 55 148 -1
21 0 1 177 55 147 37
22 0 1 176 55 146 36
23 0 1 176 55 145 -1
24 0 1 177 55 145 35
25 0 1 177 56 144 39
26 0 1 177 55 144 -1
27 0 1 176 56 144 34
28 0 1 176 57 143 -1
29 0 1 175 58 143 32
30 1 1 176 59 143 -1
31 1 1 175 58 144 -1
32 1 1 176 58 144 29
33 1 1 177 58 144 -1
34 1 1 176 57 144 27
35 1 1 176 56 145 24
36 1 1 177 56 145 22
37 1 1 176 56 146 21
38 1 1 177 57 145 -1
39 1 1 177 57 144 25
40 0 2 22 174 122 -1
41 0 2 23 175 123 51
42 0 2 24 174 123 -1
43 0 2 24 175 122 53
44 0 2 24 174 122 54
45 0 2 23 174 121 55
46 0 2 22 174 120 58
47 0 2 22 175 119 59
48 0 2 21 176 120 -1
49 0 2 22 177 121 -1
50 1 2 23 176 122 -1
51 1 2 23 175 122 41
52 1 2 24 176 122 -1
53 1 2 24 176 121 43
54 1 2 24 175 121 44
55 1 2 23 174 120 45
56 1 2 24 175 119 -1
57 1 2 24 174 118 -1
58 1 2 23 174 119 46
59 1 2 22 175 120 47
60 0 3 21 5 6 -1
61 0 3 21 5 7 72
62 0 3 22 5 7 73
63 0 3 22 5 8 71
64 0 3 23 6 9 -1
65 0 3 22 6 8 70
66 0 3 23 7 8 78
67 0 3 23 8 9 -1
68 0 3 22 7 9 -1
69 0 3 23 6 8 76
70 1 3 23 7 9 65
71 1 3 22 6 9 63
72 1 3 21 5 8 61
73 1 3 21 4 8 62
74 1 3 22 3 7 -1
75 1 3 22 4 7 -1
76 1 3 23 5 7 69
77 1 3 23 6 7 -1
78 1 3 24 7 7 66
79 1 3 25 7 7 -1
80 0 4 12 138 54 94
81 0 4 12 139 53 91
82 0 4 11 140 52 -1
83 0 4 10 139 52 -1
84 0 4 11 138 52 90
85 0 4 11 139 53 93
86 0 4 12 138 52 92
87 0 4 11 139 51 -1
88 0 4 10 138 51 -1
89 0 4 10 138 52 -1
90 1 4 11 139 52 84
91 1 4 11 140 53 81
92 1 4 12 139 52 86
93 1 4 12 138 53 85
94 1 4 13 137 53 80
95 1 4 12 136 53 -1
96 1 4 12 135 52 -1
97 1 4 12 135 51 -1
98 1 4 11 136 51 -1
99 1 4 12 137 52 -1
100 0 5 190 149 142 118
101 0 5 191 150 141 -1
102 0 5 190 149 141 119
103 0 5 190 148 141 -1
104 0 5 189 148 142 117
105 0 5 188 147 142 116
106 0 5 187 148 141 111
107 0 5 186 148 140 113
108 0 5 186 149 140 112
109 0 5 185 148 141 -1
110 1 5 185 149 142 -1
111 1 5 186 149 142 106
112 1 5 185 149 141 108
113 1 5 185 148 140 107
114 1 5 186 148 139 -1
115 1 5 187 148 140 -1
116 1 5 187 147 141 105
117 1 5 188 148 141 104
118 1 5 189 149 141 100
119 1 5 190 148 142 102
120 0 6 94 122 67 -1
121 0 6 95 121 68 136
122 0 6 96 120 67 -1
123 0 6 96 120 68 133
124 0 6 95 119 68 135
125 0 6 96 119 69 131
126 0 6 97 119 70 132
127 0 6 98 118 70 -1
128 0 6 99 119 69 130
129 0 6 98 120 70 -1
130 1 6 98 119 70 128
131 1 6 97 118 70 125
132 1 6 97 118 69 126
133 1 6 96 119 68 123
134 1 6 95 120 68 -1
135 1 6 95 119 69 124
136 1 6 94 120 68 121
137 1 6 94 119 68 -1
138 1 6 95 120 69 -1
139 1 6 96 121 69 -1
140 0 7 27 177 12 157
141 0 7 26 176 12 159
142 0 7 25 176 11 158
143 0 7 26 175 11 154
144 0 7 27 174 12 153
145 0 7 28 175 12 -1
146 0 7 29 175 11 155
147 0 7 28 175 10 151
148 0 7 28 174 10 152
149 0 7 28 174 9 150
150 1 7 28 175 9 149
151 1 7 27 174 10 147
152 1 7 28 174 11 148
153 1 7 28 174 12 144
154 1 7 27 174 11 143
155 1 7 28 175 11 146
156 1 7 28 176 11 -1
157 1 7 27 176 11 140
158 1 7 26 176 10 142
159 1 7 25 175 11 141
160 0 8 194 9 53 178
161 0 8 194 8 53 -1
162 0 8 193 9 52 177
163 0 8 192 8 51 -1
164 0 8 193 8 51 179
165 0 8 192 9 50 176
166 0 8 193 10 49 -1
167 0 8 192 10 49 -1
168 0 8 192 11 50 174
169 0 8 192 12 49 170
170 1 8 192 13 50 169
171 1 8 192 14 49 -1
172 1 8 191 13 50 -1
173 1 8 190 12 49 -1
174 1 8 191 11 50 168
175 1 8 191 10 51 -1
176 1 8 192 10 50 165
177 1 8 193 9 51 162
178 1 8 193 8 52 160
179 1 8 194 7 51 164
180 0 9 146 78 174 -1
181 0 9 147 77 175 197
182 0 9 148 76 174 199
183 0 9 148 76 173 198
184 0 9 149 75 174 196
185 0 9 150 74 175 -1
186 0 9 149 75 176 193
187 0 9 148 76 176 190
188 0 9 147 75 176 191
189 0 9 146 74 177 -1
190 1 9 147 75 177 187
191 1 9 147 74 177 188
192 1 9 148 75 176 -1
193 1 9 148 74 177 186
194 1 9 148 74 176 -1
195 1 9 149 75 175 -1
196 1 9 149 76 175 184
197 1 9 148 76 175 181
198 1 9 147 75 174 183
199 1 9 147 76 174 182
200 0 10 134 138 175 -1
201 0 10 133 139 175 217
202 0 10 134 140 176 216
203 0 10 134 141 175 215
204 0 10 135 140 174 212
205 0 10 134 140 174 211
206 0 10 134 141 173 210
207 0 10 135 141 172 -1
208 0 10 136 140 172 -1
209 0 10 135 140 172 -1
210 1 10 134 140 173 206
211 1 10 135 141 173 205
212 1 10 135 141 174 204
213 1 10 134 142 174 -1
214 1 10 133 141 174 -1
215 1 10 133 142 175 203
216 1 10 134 141 176 202
217 1 10 134 140 175 201
218 1 10 135 141 176 -1
219 1 10 135 141 175 -1
220 0 11 150 36 134 -1
221 0 11 149 35 134 238
222 0 11 148 34 135 237
223 0 11 149 35 136 236
224 0 11 150 35 137 239
225 0 11 151 35 136 234
226 0 11 151 35 137 -1
227 0 11 152 35 137 232
228 0 11 152 36 137 233
229 0 11 151 36 136 230
230 1 11 151 37 137 229
231 1 11 151 36 137 -1
232 1 11 152 35 136 227
233 1 11 153 36 137 228
234 1 11 152 36 136 225
235 1 11 151 35 135 -1
236 1 11 150 35 136 223
237 1 11 149 35 135 222
238 1 11 150 34 135 221
239 1 11 151 34 136 224
240 0 12 194 148 199 -1
241 0 12 195 149 198 -1
242 0 12 195 148 197 256
243 0 12 196 149 196 253
244 0 12 197 149 196 251
245 0 12 196 149 195 252
246 0 12 196 148 194 -1
247 0 12 197 147 194 -1
248 0 12 196 146 195 -1
249 0 12 196 147 196 257
250 1 12 197 147 195 -1
251 1 12 197 148 195 244
252 1 12 197 148 196 245
253 1 12 196 148 195 243
254 1 12 196 149 194 -1
255 1 12 195 148 195 -1
256 1 12 195 147 196 242
257 1 12 195 146 195 249
258 1 12 194 146 194 -1
259 1 12 193 147 193 -1
260 0 13 44 109 184 -1
261 0 13 44 109 183 -1
262 0 13 44 110 184 -1
263 0 13 43 111 183 -1
264 0 13 44 112 184 -1
265 0 13 45 113 185 278
266 0 13 46 113 186 277
267 0 13 45 113 187 -1
268 0 13 44 112 186 271
269 0 13 44 112 187 270
270 1 13 43 113 186 269
271 1 13 43 113 187 268
272 1 13 44 113 188 -1
273 1 13 45 112 189 -1
274 1 13 46 111 188 -1
275 1 13 46 112 188 -1
276 1 13 46 111 187 -1
277 1 13 45 112 186 266
278 1 13 46 113 185 265
279 1 13 45 114 185 -1
280 0 14 137 147 13 -1
281 0 14 138 147 14 -1
282 0 14 139 147 13 -1
283 0 14 140 148 12 299
284 0 14 141 148 13 -1
285 0 14 140 149 13 298
286 0 14 141 150 12 297
287 0 14 140 151 12 296
288 0 14 139 152 12 291
289 0 14 138 153 12 290
290 1 14 139 153 11 289
291 1 14 140 152 11 288
292 1 14 141 153 11 -1
293 1 14 140 153 11 -1
294 1 14 140 153 12 -1
295 1 14 140 152 12 -1
296 1 14 141 151 11 287
297 1 14 141 151 12 286
298 1 14 140 150 13 285
299 1 14 141 149 12 283
300 0 15 58 49 65 316
301 0 15 57 50 65 -1
302 0 15 56 51 65 319
303 0 15 57 51 66 318
304 0 15 58 50 66 317
305 0 15 59 49 67 -1
306 0 15 60 48 66 -1
307 0 15 61 47 66 -1
308 0 15 60 48 65 314
309 0 15 60 47 64 313
310 1 15 59 48 64 -1
311 1 15 59 48 63 -1
312 1 15 58 49 64 -1
313 1 15 59 48 65 309
314 1 15 60 49 64 308
315 1 15 59 50 65 -1
316 1 15 59 50 66 300
317 1 15 58 51 66 304
318 1 15 58 52 65 303
319 1 15 57 52 64 302
320 0 16 11 100 172 339
321 0 16 10 99 172 336
322 0 16 11 98 171 334
323 0 16 12 97 172 -1
324 0 16 11 98 172 331
325 0 16 10 99 173 338
326 0 16 9 100 172 333
327 0 16 8 100 172 332
328 0 16 8 100 171 -1
329 0 16 9 99 171 -1
330 1 16 9 98 171 -1
331 1 16 10 98 171 324
332 1 16 9 99 172 327
333 1 16 9 99 173 326
334 1 16 10 98 172 322
335 1 16 9 97 173 -1
336 1 16 10 98 173 321
337 1 16 11 99 173 -1
338 1 16 11 100 173 325
339 1 16 12 99 173 320
340 0 17 55 197 31 353
341 0 17 54 197 31 350
342 0 17 55 196 31 351
343 0 17 56 195 30 359
344 0 17 56 194 31 -1
345 0 17 56 194 30 358
346 0 17 55 193 31 -1
347 0 17 55 193 32 356
348 0 17 54 194 31 357
349 0 17 54 195 32 355
350 1 17 54 196 31 341
351 1 17 55 196 30 342
352 1 17 55 196 29 -1
353 1 17 54 196 30 340
354 1 17 53 195 30 -1
355 1 17 53 194 31 349
356 1 17 54 194 32 347
357 1 17 55 194 31 348
358 1 17 55 194 30 345
359 1 17 55 195 31 343
360 0 18 74 78 66 372
361 0 18 73 78 67 -1
362 0 18 74 79 68 376
363 0 18 73 80 68 -1
364 0 18 74 80 68 377
365 0 18 74 81 68 374
366 0 18 75 80 67 370
367 0 18 76 81 67 -1
368 0 18 75 81 66 371
369 0 18 76 81 66 -1
370 1 18 76 80 67 366
371 1 18 76 80 66 368
372 1 18 75 79 65 360
373 1 18 74 80 66 -1
374 1 18 74 80 67 365
375 1 18 75 81 67 -1
376 1 18 75 80 68 362
377 1 18 74 80 69 364
378 1 18 75 79 70 -1
379 1 18 74 79 70 -1
380 0 19 175 154 12 399
381 0 19 175 153 12 398
382 0 19 174 153 12 -1
383 0 19 175 152 13 397
384 0 19 174 153 14 392
385 0 19 175 154 14 396
386 0 19 174 154 15 393
387 0 19 173 154 16 390
388 0 19 172 154 16 -1
389 0 19 173 153 16 391
390 1 19 174 153 17 387
391 1 19 174 154 16 389
392 1 19 173 154 15 384
393 1 19 173 155 16 386
394 1 19 174 156 16 -1
395 1 19 175 155 16 -1
396 1 19 175 154 15 385
397 1 19 175 153 14 383
398 1 19 175 154 13 381
399 1 19 176 153 12 380
400 0 20 7 47 71 -1
401 0 20 6 46 71 418
402 0 20 7 46 70 417
403 0 20 7 46 71 416
404 0 20 6 45 72 415
405 0 20 5 45 72 412
406 0 20 4 44 72 -1
407 0 20 5 44 73 411
408 0 20 5 43 74 -1
409 0 20 5 44 75 410
410 1 20 5 45 74 409
411 1 20 5 44 74 407
412 1 20 4 44 73 405
413 1 20 5 45 73 -1
414 1 20 6 44 73 -1
415 1 20 7 45 73 404
416 1 20 7 46 72 403
417 1 20 6 45 71 402
418 1 20 5 46 72 401
419 1 20 4 47 72 -1
420 0 21 141 67 24 439
421 0 21 141 66 24 431
422 0 21 140 66 25 438
423 0 21 141 66 25 432
424 0 21 140 67 26 430
425 0 21 140 68 26 -1
426 0 21 141 69 26 -1
427 0 21 142 69 26 -1
428 0 21 141 68 26 -1
429 0 21 140 67 25 -1
430 1 21 141 66 26 424
431 1 21 141 65 25 421
432 1 21 140 66 26 423
433 1 21 139 66 26 -1
434 1 21 138 67 26 -1
435 1 21 139 68 27 -1
436 1 21 139 68 28 -1
437 1 21 140 67 27 -1
438 1 21 141 67 26 422
439 1 21 141 67 25 420
440 0 22 126 8 15 -1
441 0 22 125 9 15 -1
442 0 22 124 8 16 -1
443 0 22 125 8 17 453
444 0 22 126 8 17 451
445 0 22 125 8 16 459
446 0 22 124 7 17 458
447 0 22 123 7 16 -1
448 0 22 124 8 17 -1
449 0 22 125 7 18 452
450 1 22 126 7 17 -1
451 1 22 126 7 18 444
452 1 22 126 6 17 449
453 1 22 126 7 16 443
454 1 22 126 6 16 -1
455 1 22 126 5 17 -1
456 1 22 125 4 16 -1
457 1 22 125 5 17 -1
458 1 22 124 6 16 446
459 1 22 125 7 17 445
460 0 23 96 144 101 -1
461 0 23 96 145 102 478
462 0 23 95 145 101 -1
463 0 23 96 146 101 476
464 0 23 96 146 100 474
465 0 23 95 146 99 470
466 0 23 95 146 98 -1
467 0 23 95 147 98 -1
468 0 23 96 147 99 471
469 0 23 95 148 99 472
470 1 23 95 147 100 465
471 1 23 95 147 99 468
472 1 23 96 147 100 469
473 1 23 97 146 101 -1
474 1 23 97 147 101 464
475 1 23 97 148 101 -1
476 1 23 96 147 102 463
477 1 23 95 147 101 -1
478 1 23 95 146 101 461
479 1 23 95 146 100 -1
480 0 24 35 164 187 -1
481 0 24 36 165 188 497
482 0 24 36 166 189 -1
483 0 24 37 167 189 491
484 0 24 38 167 188 498
485 0 24 37 166 189 495
486 0 24 36 167 190 494
487 0 24 36 166 191 493
488 0 24 36 167 191 492
489 0 24 37 166 190 490
490 1 24 38 166 189 489
491 1 24 38 167 190 483
492 1 24 37 168 191 488
493 1 24 36 167 192 487
494 1 24 36 168 191 486
495 1 24 37 167 190 485
496 1 24 36 167 189 -1
497 1 24 36 166 188 481
498 1 24 37 166 187 484
499 1 24 37 167 186 -1
500 0 25 121 159 134 -1
501 0 25 121 158 133 519
502 0 25 120 158 134 -1
503 0 25 121 159 135 518
504 0 25 120 159 135 511
505 0 25 121 160 134 513
506 0 25 121 161 134 514
507 0 25 120 160 133 517
508 0 25 120 161 134 510
509 0 25 119 160 135 512
510 1 25 120 161 135 508
511 1 25 121 160 135 504
512 1 25 120 160 135 509
513 1 25 121 161 135 505
514 1 25 122 161 134 506
515 1 25 121 162 134 -1
516 1 25 120 162 134 -1
517 1 25 121 161 133 507
518 1 25 120 160 134 503
519 1 25 120 159 134 501
520 0 26 89 109 169 -1
521 0 26 88 110 169 -1
522 0 26 88 111 168 530
523 0 26 89 112 167 531
524 0 26 88 113 166 -1
525 0 26 87 114 167 539
526 0 26 87 113 167 538
527 0 26 88 114 168 534
528 0 26 88 114 167 535
529 0 26 89 113 166 -1
530 1 26 88 112 167 522
531 1 26 89 111 167 523
532 1 26 89 112 166 -1
533 1 26 90 112 166 -1
534 1 26 89 113 167 527
535 1 26 89 114 168 528
536 1 26 90 113 168 -1
537 1 26 89 112 168 -1
538 1 26 88 113 167 526
539 1 26 87 113 166 525
540 0 27 191 196 160 -1
541 0 27 191 196 161 -1
542 0 27 192 197 160 558
543 0 27 193 196 161 554
544 0 27 193 195 160 555
545 0 27 193 195 161 557
546 0 27 194 194 161 -1
547 0 27 195 194 161 -1
548 0 27 194 194 162 552
549 0 27 193 195 163 553
550 1 27 193 195 164 -1
551 1 27 194 195 164 -1
552 1 27 195 194 163 548
553 1 27 194 195 162 549
554 1 27 194 195 161 543
555 1 27 193 196 160 544
556 1 27 194 196 159 -1
557 1 27 194 196 160 545
558 1 27 193 196 159 542
559 1 27 194 195 159 -1
560 0 28 184 28 121 -1
561 0 28 184 28 120 -1
562 0 28 185 27 120 -1
563 0 28 184 28 119 -1
564 0 28 183 29 120 576
565 0 28 183 30 121 577
566 0 28 184 31 120 572
567 0 28 184 32 119 570
568 0 28 183 33 118 571
569 0 28 184 32 117 573
570 1 28 183 32 118 567
571 1 28 184 33 118 568
572 1 28 183 32 119 566
573 1 28 184 32 118 569
574 1 28 183 31 119 -1
575 1 28 182 30 118 -1
576 1 28 182 30 119 564
577 1 28 182 31 120 565
578 1 28 183 31 121 -1
579 1 28 184 32 121 -1
580 0 29 149 155 142 598
581 0 29 148 156 143 597
582 0 29 147 157 143 -1
583 0 29 147 158 143 595
584 0 29 146 158 144 591
585 0 29 146 158 145 593
586 0 29 145 159 145 -1
587 0 29 146 160 144 590
588 0 29 146 159 143 592
589 0 29 146 159 144 594
590 1 29 146 160 143 587
591 1 29 145 159 144 584
592 1 29 146 158 143 588
593 1 29 147 159 144 585
594 1 29 147 160 144 589
595 1 29 147 159 143 583
596 1 29 148 158 142 -1
597 1 29 149 157 143 581
598 1 29 150 156 143 580
599 1 29 150 157 142 -1
600 0 30 184 91 167 -1
601 0 30 185 90 167 615
602 0 30 186 90 166 613
603 0 30 186 91 167 616
604 0 30 187 92 166 614
605 0 30 187 93 165 -1
606 0 30 187 92 164 612
607 0 30 187 92 165 611
608 0 30 188 93 164 610
609 0 30 188 93 165 -1
610 1 30 189 92 164 608
611 1 30 188 91 165 607
612 1 30 187 91 164 606
613 1 30 186 91 165 602
614 1 30 186 91 166 604
615 1 30 185 90 166 601
616 1 30 185 91 167 603
617 1 30 186 90 168 -1
618 1 30 186 91 168 -1
619 1 30 186 90 167 -1
620 0 31 109 121 118 632
621 0 31 109 122 118 633
622 0 31 110 121 118 634
623 0 31 111 120 119 635
624 0 31 110 120 119 -1
625 0 31 111 121 120 -1
626 0 31 110 122 119 -1
627 0 31 109 121 119 -1
628 0 31 109 120 118 -1
629 0 31 108 120 119 -1
630 1 31 108 121 119 -1
631 1 31 109 122 120 -1
632 1 31 109 122 119 620
633 1 31 110 121 119 621
634 1 31 111 122 119 622
635 1 31 112 121 120 623
636 1 31 113 121 120 -1
637 1 31 113 120 120 -1
638 1 31 114 119 121 -1
639 1 31 113 119 122 -1
640 0 32 48 196 138 659
641 0 32 48 195 138 657
642 0 32 47 194 137 656
643 0 32 48 194 138 658
644 0 32 49 193 138 655
645 0 32 50 192 138 -1
646 0 32 49 191 139 653
647 0 32 49 192 139 -1
648 0 32 50 191 140 -1
649 0 32 50 192 141 -1
650 1 32 49 191 141 -1
651 1 32 50 191 141 -1
652 1 32 49 190 140 -1
653 1 32 48 191 139 646
654 1 32 47 192 140 -1
655 1 32 48 192 139 644
656 1 32 48 193 138 642
657 1 32 49 194 139 641
658 1 32 49 194 138 643
659 1 32 49 195 139 640
660 0 33 104 181 151 679
661 0 33 104 180 151 677
662 0 33 105 181 150 675
663 0 33 106 181 149 672
664 0 33 105 180 149 -1
665 0 33 104 179 148 -1
666 0 33 104 180 147 -1
667 0 33 105 181 148 676
668 0 33 106 182 149 671
669 0 33 105 182 148 -1
670 1 33 105 183 149 -1
671 1 33 106 183 149 668
672 1 33 105 182 150 663
673 1 33 104 182 151 -1
674 1 33 103 182 151 -1
675 1 33 104 181 150 662
676 1 33 104 181 149 667
677 1 33 103 180 150 661
678 1 33 103 181 151 -1
679 1 33 103 182 150 660
680 0 34 94 93 164 -1
681 0 34 95 92 163 698
682 0 34 95 92 162 696
683 0 34 94 92 162 699
684 0 34 93 91 161 694
685 0 34 92 91 161 695
686 0 34 92 90 160 690
687 0 34 93 90 160 691
688 0 34 94 89 159 692
689 0 34 94 89 160 -1
690 1 34 93 90 161 686
691 1 34 94 89 161 687
692 1 34 94 90 160 688
693 1 34 94 91 160 -1
694 1 34 93 91 160 684
695 1 34 93 92 161 685
696 1 34 94 93 161 682
697 1 34 94 93 162 -1
698 1 34 95 93 162 681
699 1 34 95 93 161 683
700 0 35 90 135 129 714
701 0 35 89 135 128 717
702 0 35 90 135 127 718
703 0 35 90 136 127 716
704 0 35 91 137 127 711
705 0 35 92 137 128 -1
706 0 35 92 136 127 710
707 0 35 93 136 128 -1
708 0 35 92 137 129 713
709 0 35 93 137 128 -1
710 1 35 93 137 127 706
711 1 35 92 136 128 704
712 1 35 92 135 127 -1
713 1 35 91 136 128 708
714 1 35 91 135 128 700
715 1 35 91 134 127 -1
716 1 35 90 135 128 703
717 1 35 90 134 127 701
718 1 35 90 134 128 702
719 1 35 89 133 127 -1
720 0 36 143 82 41 735
721 0 36 142 81 42 734
722 0 36 141 80 43 -1
723 0 36 142 79 42 739
724 0 36 143 80 42 736
725 0 36 142 81 43 733
726 0 36 143 81 44 731
727 0 36 143 82 43 -1
728 0 36 142 82 44 732
729 0 36 143 83 43 730
730 1 36 143 83 42 729
731 1 36 142 82 43 726
732 1 36 141 81 43 728
733 1 36 142 82 42 725
734 1 36 143 81 42 721
735 1 36 144 82 41 720
736 1 36 143 81 41 724
737 1 36 144 81 42 -1
738 1 36 143 81 43 -1
739 1 36 143 80 43 723
740 0 37 127 151 90 -1
741 0 37 127 152 91 754
742 0 37 127 153 91 756
743 0 37 126 154 91 752
744 0 37 127 154 90 751
745 0 37 127 154 91 -1
746 0 37 128 153 91 -1
747 0 37 127 154 92 757
748 0 37 128 154 91 -1
749 0 37 128 154 90 750
750 1 37 128 155 89 749
751 1 37 127 154 89 744
752 1 37 127 153 90 743
753 1 37 126 152 91 -1
754 1 37 126 152 92 741
755 1 37 126 151 93 -1
756 1 37 127 152 92 742
757 1 37 126 153 93 747
758 1 37 126 152 94 -1
759 1 37 126 152 95 -1
760 0 38 93 164 107 -1
761 0 38 92 164 106 -1
762 0 38 91 165 105 -1
763 0 38 90 164 106 775
764 0 38 89 165 105 774
765 0 38 89 164 106 -1
766 0 38 88 163 105 773
767 0 38 87 162 105 770
768 0 38 86 162 104 771
769 0 38 87 163 104 772
770 1 38 88 163 104 767
771 1 38 87 162 103 768
772 1 38 87 162 104 769
773 1 38 87 163 105 766
774 1 38 88 164 106 764
775 1 38 89 165 107 763
776 1 38 90 166 107 -1
777 1 38 90 165 106 -1
778 1 38 90 165 105 -1
779 1 38 90 165 104 -1
780 0 39 132 155 157 -1
781 0 39 132 155 156 -1
782 0 39 133 156 157 791
783 0 39 133 155 158 794
784 0 39 132 155 158 792
785 0 39 133 155 159 797
786 0 39 134 156 160 798
787 0 39 134 156 159 799
788 0 39 135 155 158 -1
789 0 39 134 156 157 790
790 1 39 133 156 158 789
791 1 39 134 157 158 782
792 1 39 133 156 159 784
793 1 39 132 155 160 -1
794 1 39 132 155 159 783
795 1 39 131 156 158 -1
796 1 39 132 156 159 -1
797 1 39 133 156 160 785
798 1 39 134 155 159 786
799 1 39 135 156 159 787
800 0 40 28 155 31 -1
801 0 40 28 156 31 -1
802 0 40 27 155 30 -1
803 0 40 26 156 29 818
804 0 40 27 157 29 817
805 0 40 28 158 29 813
806 0 40 28 159 29 815
807 0 40 29 158 30 814
808 0 40 30 159 29 -1
809 0 40 29 160 29 810
810 1 40 30 160 30 809
811 1 40 31 159 31 -1
812 1 40 30 159 30 -1
813 1 40 29 159 29 805
814 1 40 29 159 30 807
815 1 40 29 158 29 806
816 1 40 28 157 29 -1
817 1 40 27 157 30 804
818 1 40 26 156 30 803
819 1 40 26 155 31 -1
820 0 41 58 182 150 -1
821 0 41 57 183 150 838
822 0 41 56 184 151 -1
823 0 41 57 185 151 839
824 0 41 58 185 151 834
825 0 41 59 184 152 837
826 0 41 60 184 152 833
827 0 41 61 185 153 832
828 0 41 62 185 153 -1
829 0 41 61 185 154 831
830 1 41 60 184 155 -1
831 1 41 61 184 154 829
832 1 41 60 184 154 827
833 1 41 59 184 153 826
834 1 41 58 185 152 824
835 1 41 58 184 152 -1
836 1 41 57 183 152 -1
837 1 41 58 183 151 825
838 1 41 57 184 150 821
839 1 41 56 185 151 823
840 0 42 152 72 33 -1
841 0 42 151 71 32 -1
842 0 42 150 70 31 856
843 0 42 150 70 32 -1
844 0 42 150 69 31 -1
845 0 42 150 68 30 855
846 0 42 149 68 30 857
847 0 42 150 69 29 859
848 0 42 151 68 30 858
849 0 42 152 67 30 851
850 1 42 153 68 30 -1
851 1 42 152 67 29 849
852 1 42 151 68 28 -1
853 1 42 150 67 29 -1
854 1 42 151 67 30 -1
855 1 42 151 68 29 845
856 1 42 150 69 30 842
857 1 42 149 69 30 846
858 1 42 150 68 29 848
859 1 42 149 68 28 847
860 0 43 101 22 160 -1
861 0 43 100 23 160 879
862 0 43 101 24 160 877
863 0 43 101 24 159 876
864 0 43 100 25 158 -1
865 0 43 99 24 157 873
866 0 43 100 23 158 875
867 0 43 101 24 158 -1
868 0 43 100 23 157 -1
869 0 43 101 22 156 870
870 1 43 101 23 156 869
871 1 43 100 23 156 -1
872 1 43 99 22 157 -1
873 1 43 99 23 156 865
874 1 43 98 23 156 -1
875 1 43 99 23 157 866
876 1 43 100 24 158 863
877 1 43 100 23 159 862
878 1 43 99 22 160 -1
879 1 43 99 23 159 861
880 0 44 78 174 171 898
881 0 44 78 173 171 -1
882 0 44 79 172 171 897
883 0 44 80 171 172 895
884 0 44 79 172 173 891
885 0 44 80 172 173 893
886 0 44 80 173 174 890
887 0 44 81 174 173 894
888 0 44 81 175 174 -1
889 0 44 80 174 174 892
890 1 44 81 173 175 886
891 1 44 80 172 174 884
892 1 44 79 173 174 889
893 1 44 80 173 173 885
894 1 44 81 173 172 887
895 1 44 81 172 173 883
896 1 44 81 171 173 -1
897 1 44 80 172 172 882
898 1 44 79 173 171 880
899 1 44 79 174 172 -1
900 0 45 20 44 137 916
901 0 45 21 45 136 913
902 0 45 21 46 135 915
903 0 45 21 47 136 911
904 0 45 22 46 135 -1
905 0 45 23 47 135 -1
906 0 45 23 46 135 910
907 0 45 23 46 136 -1
908 0 45 23 46 137 -1
909 0 45 22 46 137 912
910 1 45 23 47 136 906
911 1 45 22 47 136 903
912 1 45 22 46 136 909
913 1 45 21 46 136 901
914 1 45 20 46 135 -1
915 1 45 20 45 136 902
916 1 45 19 45 137 900
917 1 45 20 44 138 -1
918 1 45 19 45 138 -1
919 1 45 19 46 139 -1
920 0 46 5 160 65 935
921 0 46 6 159 65 937
922 0 46 7 160 65 936
923 0 46 8 160 64 934
924 0 46 9 161 64 -1
925 0 46 9 161 65 931
926 0 46 8 162 66 933
927 0 46 8 161 65 930
928 0 46 9 161 66 -1
929 0 46 10 160 65 -1
930 1 46 9 160 65 927
931 1 46 8 160 65 925
932 1 46 8 160 66 -1
933 1 46 8 161 66 926
934 1 46 7 161 65 923
935 1 46 6 160 64 920
936 1 46 6 159 64 922
937 1 46 5 159 65 921
938 1 46 5 158 65 -1
939 1 46 4 157 65 -1
940 0 47 53 12 160 957
941 0 47 54 13 161 954
942 0 47 55 12 162 955
943 0 47 55 13 162 -1
944 0 47 54 12 162 956
945 0 47 53 12 163 -1
946 0 47 54 12 164 950
947 0 47 53 12 164 951
948 0 47 54 13 164 -1
949 0 47 55 13 163 -1
950 1 47 54 12 163 946
951 1 47 53 11 163 947
952 1 47 52 12 163 -1
953 1 47 53 13 162 -1
954 1 47 54 14 162 941
955 1 47 55 13 161 942
956 1 47 54 12 161 944
957 1 47 54 11 161 940
958 1 47 55 10 162 -1
959 1 47 56 9 162 -1
960 0 48 4 40 132 972
961 0 48 5 41 131 971
962 0 48 5 40 130 -1
963 0 48 4 41 131 973
964 0 48 5 41 130 -1
965 0 48 4 41 129 -1
966 0 48 4 42 129 979
967 0 48 3 42 130 970
968 0 48 4 43 130 978
969 0 48 4 44 131 977
970 1 48 3 43 130 967
971 1 48 4 42 131 961
972 1 48 3 41 131 960
973 1 48 4 42 130 963
974 1 48 5 41 129 -1
975 1 48 5 42 129 -1
976 1 48 6 43 130 -1
977 1 48 5 44 131 969
978 1 48 4 44 130 968
979 1 48 4 43 129 966
980 0 49 106 134 62 -1
981 0 49 105 133 63 995
982 0 49 105 133 64 998
983 0 49 106 132 64 994
984 0 49 105 131 64 993
985 0 49 105 130 63 -1
986 0 49 105 129 64 992
987 0 49 104 128 65 990
988 0 49 105 127 66 -1
989 0 49 104 128 67 991
990 1 49 104 128 66 987
991 1 49 104 129 66 989
992 1 49 105 130 65 986
993 1 49 106 130 64 984
994 1 49 107 131 64 983
995 1 49 106 132 63 981
996 1 49 106 133 64 -1
997 1 49 105 134 63 -1
998 1 49 106 134 64 982
999 1 49 105 133 65 -1
1000 0 50 37 39 74 -1
1001 0 50 36 40 74 -1
1002 0 50 35 39 73 -1
1003 0 50 34 39 74 1012
1004 0 50 34 40 75 -1
1005 0 50 34 39 75 -1
1006 0 50 35 38 76 1014
1007 0 50 35 39 77 1013
1008 0 50 36 40 76 1010
1009 0 50 35 40 76 -1
1010 1 50 35 40 75 1008
1011 1 50 34 39 76 -1
1012 1 50 35 38 75 1003
1013 1 50 36 38 76 1007
1014 1 50 36 37 75 1006
1015 1 50 35 36 75 -1
1016 1 50 36 36 75 -1
1017 1 50 35 37 74 -1
1018 1 50 34 37 74 -1
1019 1 50 35 36 73 -1
1020 0 51 128 121 134 -1
1021 0 51 129 120 135 1039
1022 0 51 130 119 136 1032
1023 0 51 130 119 137 1034
1024 0 51 129 120 136 1033
1025 0 51 128 121 137 1030
1026 0 51 128 121 138 -1
1027 0 51 129 122 137 -1
1028 0 51 129 122 138 -1
1029 0 51 130 121 137 1031
1030 1 51 129 121 137 1025
1031 1 51 130 120 137 1029
1032 1 51 131 119 137 1022
1033 1 51 130 120 136 1024
1034 1 51 129 120 137 1023
1035 1 51 128 120 138 -1
1036 1 51 127 120 139 -1
1037 1 51 128 119 138 -1
1038 1 51 128 120 137 -1
1039 1 51 129 121 136 1021
1040 0 52 132 158 32 -1
1041 0 52 132 158 33 -1
1042 0 52 133 159 34 -1
1043 0 52 132 158 35 1056
1044 0 52 132 157 36 1057
1045 0 52 133 156 36 1052
1046 0 52 133 155 36 -1
1047 0 52 132 156 37 1055
1048 0 52 131 157 36 1054
1049 0 52 132 158 36 1050
1050 1 52 133 159 37 1049
1051 1 52 134 158 36 -1
1052 1 52 133 157 37 1045
1053 1 52 132 158 38 -1
1054 1 52 132 158 37 1048
1055 1 52 133 157 36 1047
1056 1 52 133 157 35 1043
1057 1 52 132 156 36 1044
1058 1 52 132 157 35 -1
1059 1 52 131 157 35 -1
1060 0 53 36 118 179 1078
1061 0 53 35 119 180 1077
1062 0 53 36 118 181 1079
1063 0 53 37 119 180 1071
1064 0 53 37 118 180 -1
1065 0 53 36 119 179 1075
1066 0 53 36 119 180 -1
1067 0 53 35 120 180 1070
1068 0 53 34 121 181 -1
1069 0 53 35 122 180 1074
1070 1 53 36 121 180 1067
1071 1 53 36 120 179 1063
1072 1 53 37 119 178 -1
1073 1 53 36 120 178 -1
1074 1 53 35 121 179 1069
1075 1 53 35 120 179 1065
1076 1 53 34 119 178 -1
1077 1 53 35 118 179 1061
1078 1 53 36 117 180 1060
1079 1 53 36 118 180 1062
1080 0 54 138 56 18 -1
1081 0 54 137 55 17 1096
1082 0 54 137 56 16 1098
1083 0 54 138 56 16 1093
1084 0 54 138 55 16 1099
1085 0 54 137 56 15 1092
1086 0 54 137 55 14 1091
1087 0 54 138 54 15 -1
1088 0 54 139 55 14 -1
1089 0 54 138 55 13 1090
1090 1 54 137 56 13 1089
1091 1 54 136 56 14 1086
1092 1 54 136 56 15 1085
1093 1 54 137 57 16 1083
1094 1 54 136 57 17 -1
1095 1 54 136 56 16 -1
1096 1 54 136 56 17 1081
1097 1 54 136 55 16 -1
1098 1 54 136 55 15 1082
1099 1 54 137 55 16 1084
1100 0 55 134 80 57 1116
1101 0 55 134 79 56 1115
1102 0 55 134 78 55 1110
1103 0 55 133 79 56 1112
1104 0 55 134 78 56 1114
1105 0 55 133 79 55 1113
1106 0 55 133 79 54 -1
1107 0 55 133 78 54 1111
1108 0 55 134 77 53 -1
1109 0 55 135 78 53 -1
1110 1 55 134 77 54 1102
1111 1 55 133 77 54 1107
1112 1 55 132 78 55 1103
1113 1 55 133 78 56 1105
1114 1 55 133 79 57 1104
1115 1 55 134 80 56 1101
1116 1 55 135 80 56 1100
1117 1 55 135 80 57 -1
1118 1 55 134 79 58 -1
1119 1 55 134 80 59 -1
1120 0 56 120 63 181 1139
1121 0 56 119 62 182 1138
1122 0 56 120 63 182 -1
1123 0 56 120 63 183 1136
1124 0 56 120 62 182 1131
1125 0 56 121 61 183 1132
1126 0 56 122 61 183 1134
1127 0 56 123 62 182 1135
1128 0 56 122 63 182 -1
1129 0 56 121 63 183 1137
1130 1 56 120 62 184 -1
1131 1 56 121 62 183 1124
1132 1 56 122 62 184 1125
1133 1 56 123 62 183 -1
1134 1 56 122 61 182 1126
1135 1 56 122 62 182 1127
1136 1 56 121 63 182 1123
1137 1 56 120 62 183 1129
1138 1 56 120 61 183 1121
1139 1 56 121 62 182 1120
1140 0 57 144 174 10 1158
1141 0 57 144 174 11 -1
1142 0 57 145 175 12 1155
1143 0 57 145 176 13 -1
1144 0 57 144 176 14 -1
1145 0 57 145 175 13 1159
1146 0 57 144 174 12 1156
1147 0 57 143 173 12 1151
1148 0 57 142 172 12 1152
1149 0 57 142 172 13 1150
1150 1 57 142 173 12 1149
1151 1 57 143 173 13 1147
1152 1 57 143 172 12 1148
1153 1 57 144 173 12 -1
1154 1 57 143 174 13 -1
1155 1 57 144 175 13 1142
1156 1 57 143 175 13 1146
1157 1 57 143 176 12 -1
1158 1 57 143 175 11 1140
1159 1 57 144 176 12 1145
1160 0 58 95 65 12 1178
1161 0 58 95 66 12 -1
1162 0 58 95 67 12 -1
1163 0 58 94 68 11 1175
1164 0 58 93 67 11 1171
1165 0 58 92 68 12 1176
1166 0 58 92 67 11 -1
1167 0 58 92 66 10 1173
1168 0 58 91 66 11 1174
1169 0 58 90 66 10 1170
1170 1 58 91 67 10 1169
1171 1 58 92 68 10 1164
1172 1 58 92 67 9 -1
1173 1 58 91 66 10 1167
1174 1 58 92 66 11 1168
1175 1 58 93 67 12 1163
1176 1 58 93 68 13 1165
1177 1 58 94 67 12 -1
1178 1 58 94 66 12 1160
1179 1 58 93 66 13 -1
1180 0 59 7 79 87 -1
1181 0 59 6 78 87 1198
1182 0 59 7 79 88 -1
1183 0 59 8 78 87 1195
1184 0 59 8 77 87 -1
1185 0 59 9 76 87 -1
1186 0 59 8 76 86 1194
1187 0 59 9 77 85 1197
1188 0 59 8 76 84 1191
1189 0 59 8 75 85 1193
1190 1 59 9 75 84 -1
1191 1 59 9 76 84 1188
1192 1 59 8 75 83 -1
1193 1 59 7 75 84 1189
1194 1 59 8 76 85 1186
1195 1 59 9 77 86 1183
1196 1 59 8 78 85 -1
1197 1 59 8 77 86 1187
1198 1 59 7 78 86 1181
1199 1 59 7 78 85 -1
1200 0 60 151 103 178 1213
1201 0 60 151 102 177 -1
1202 0 60 150 103 178 1210
1203 0 60 150 103 179 -1
1204 0 60 149 103 180 1214
1205 0 60 148 102 179 1216
1206 0 60 149 103 179 1215
1207 0 60 148 103 178 1217
1208 0 60 149 102 177 1212
1209 0 60 148 103 177 -1
1210 1 60 149 104 178 1202
1211 1 60 150 104 177 -1
1212 1 60 149 103 178 1208
1213 1 60 150 102 179 1200
1214 1 60 149 102 179 1204
1215 1 60 149 102 178 1206
1216 1 60 148 101 178 1205
1217 1 60 147 102 178 1207
1218 1 60 147 101 177 -1
1219 1 60 148 100 177 -1
1220 0 61 123 59 68 1233
1221 0 61 123 60 69 -1
1222 0 61 122 60 70 1234
1223 0 61 121 60 70 1231
1224 0 61 120 59 70 1235
1225 0 61 119 59 71 1236
1226 0 61 118 60 71 -1
1227 0 61 117 59 72 1238
1228 0 61 118 59 72 1239
1229 0 61 119 60 73 1230
1230 1 61 120 60 72 1229
1231 1 61 120 60 71 1223
1232 1 61 121 61 70 -1
1233 1 61 122 60 69 1220
1234 1 61 121 59 70 1222
1235 1 61 121 60 71 1224
1236 1 61 120 59 72 1225
1237 1 61 119 59 72 -1
1238 1 61 118 60 72 1227
1239 1 61 118 59 71 1228
1240 0 62 80 197 143 1259
1241 0 62 79 198 144 -1
1242 0 62 80 197 145 -1
1243 0 62 80 198 146 1253
1244 0 62 81 197 147 1251
1245 0 62 80 196 147 1254
1246 0 62 81 196 146 1252
1247 0 62 81 195 145 -1
1248 0 62 80 196 144 1256
1249 0 62 81 197 145 1250
1250 1 62 82 197 146 1249
1251 1 62 82 196 146 1244
1252 1 62 82 197 147 1246
1253 1 62 81 198 146 1243
1254 1 62 80 197 146 1245
1255 1 62 80 196 145 -1
1256 1 62 79 197 144 1248
1257 1 62 79 196 143 -1
1258 1 62 80 196 142 -1
1259 1 62 79 197 143 1240
1260 0 63 124 109 182 -1
1261 0 63 124 109 183 1279
1262 0 63 124 110 184 1278
1263 0 63 125 111 184 1277
1264 0 63 125 110 184 1276
1265 0 63 125 110 185 -1
1266 0 63 126 110 186 -1
1267 0 63 126 109 185 1273
1268 0 63 127 108 185 1270
1269 0 63 128 109 185 -1
1270 1 63 128 108 185 1268
1271 1 63 129 108 186 -1
1272 1 63 128 109 187 -1
1273 1 63 127 110 186 1267
1274 1 63 126 109 186 -1
1275 1 63 125 109 185 -1
1276 1 63 126 110 185 1264
1277 1 63 126 110 184 1263
1278 1 63 125 110 183 1262
1279 1 63 124 109 184 1261
1280 0 64 102 40 34 1294
1281 0 64 103 40 35 1299
1282 0 64 104 41 34 1296
1283 0 64 103 41 33 1293