ITEM: TIMESTEP
0
ITEM: NUMBER OF ATOMS
10000
ITEM: BOX BOUNDS pp pp pp
0 200
0 200
0 200
ITEM: ATOMS id type mol x y z bP
0 0 0 7 75 98 14
1 0 0 6 74 99 16
2 0 0 7 74 98 -1
3 0 0 8 74 99 17
4 0 0 7 74 99 15
5 0 0 8 74 100 -1
6 0 0 8 75 101 -1
7 0 0 8 75 102 -1
8 0 0 7 75 101 -1
9 0 0 7 76 101 13
10 1 0 6 76 100 -1
11 1 0 5 77 100 -1
12 1 0 5 76 100 -1
13 1 0 6 77 100 9
14 1 0 7 76 99 0
15 1 0 8 75 100 4
16 1 0 7 75 99 1
17 1 0 7 74 100 3
18 1 0 6 73 100 -1
19 1 0 6 72 100 -1
20 0 1 17 58 138 -1
21 0 1 17 57 137 37
22 0 1 18 58 136 -1
23 0 1 17 58 135 39
24 0 1 16 57 136 38
25 0 1 15 57 137 34
26 0 1 14 56 136 33
27 0 1 13 57 137 35
28 0 1 12 56 136 30
29 0 1 11 56 136 31
30 1 1 12 56 137 28
31 1 1 12 55 137 29
32 1 1 13 55 137 -1
33 1 1 13 56 137 26
34 1 1 14 57 137 25
35 1 1 14 58 137 27
36 1 1 15 58 137 -1
37 1 1 16 58 136 21
38 1 1 16 58 135 24
39 1 1 17 59 136 23
40 0 2 161 81 183 -1
41 0 2 162 82 182 57
42 0 2 162 81 182 -1
43 0 2 162 80 181 -1
44 0 2 162 81 180 55
45 0 2 163 82 181 58
46 0 2 162 82 180 53
47 0 2 163 81 179 54
48 0 2 162 82 178 52
49 0 2 162 82 177 50
50 1 2 163 83 178 49
51 1 2 162 84 177 -1
52 1 2 161 83 178 48
53 1 2 162 82 179 46
54 1 2 163 82 179 47
55 1 2 163 81 180 44
56 1 2 163 82 180 -1
57 1 2 163 81 181 41
58 1 2 164 81 180 45
59 1 2 164 82 180 -1
60 0 3 167 13 194 78
61 0 3 168 14 195 73
62 0 3 168 15 196 -1
63 0 3 167 14 195 77
64 0 3 167 13 196 74
65 0 3 166 13 195 75
66 0 3 165 14 196 76
67 0 3 166 15 195 70
68 0 3 165 15 196 71
69 0 3 166 16 195 -1
70 1 3 165 16 196 67
71 1 3 166 16 197 68
72 1 3 166 15 196 -1
73 1 3 167 14 196 61
74 1 3 166 14 197 64
75 1 3 165 13 196 65
76 1 3 165 14 195 66
77 1 3 166 13 194 63
78 1 3 166 12 193 60
79 1 3 167 12 193 -1
80 0 4 93 22 57 93
81 0 4 93 22 58 95
82 0 4 92 22 59 -1
83 0 4 92 22 58 98
84 0 4 93 21 57 94
85 0 4 92 20 57 90
86 0 4 93 20 56 -1
87 0 4 94 20 57 92
88 0 4 93 19 57 91
89 0 4 93 20 58 96
90 1 4 92 19 57 85
91 1 4 93 19 56 88
92 1 4 94 20 56 87
93 1 4 94 21 57 80
94 1 4 94 21 58 84
95 1 4 94 22 57 81
96 1 4 93 21 58 89
97 1 4 92 22 57 -1
98 1 4 93 23 58 83
99 1 4 93 22 59 -1
100 0 5 95 16 181 -1
101 0 5 94 16 182 -1
102 0 5 94 17 181 112
103 0 5 93 16 180 119
104 0 5 93 15 180 -1
105 0 5 94 15 180 118
106 0 5 95 16 180 113
107 0 5 94 17 180 117
108 0 5 95 18 181 111
109 0 5 95 18 180 110
110 1 5 94 19 181 109
111 1 5 94 18 180 108
112 1 5 95 17 180 102
113 1 5 96 17 180 106
114 1 5 96 18 179 -1
115 1 5 96 18 178 -1
116 1 5 95 17 178 -1
117 1 5 95 16 179 107
118 1 5 94 16 179 105
119 1 5 94 16 180 103
120 0 6 186 67 172 139
121 0 6 187 68 172 -1
122 0 6 187 69 173 136
123 0 6 186 69 172 133
124 0 6 186 70 172 -1
125 0 6 185 69 172 -1
126 0 6 184 69 173 134
127 0 6 185 70 173 131
128 0 6 184 70 172 -1
129 0 6 184 71 171 130
130 1 6 184 72 172 129
131 1 6 184 71 172 127
132 1 6 185 70 172 -1
133 1 6 185 69 173 123
134 1 6 184 68 173 126
135 1 6 185 68 173 -1
136 1 6 186 69 173 122
137 1 6 187 70 173 -1
138 1 6 187 69 172 -1
139 1 6 186 68 172 120
140 0 7 43 47 33 -1
141 0 7 44 47 32 -1
142 0 7 44 48 32 -1
143 0 7 45 47 32 158
144 0 7 45 46 32 -1
145 0 7 45 45 33 150
146 0 7 44 46 32 152
147 0 7 45 46 33 -1
148 0 7 46 45 34 154
149 0 7 45 44 33 155
150 1 7 44 44 32 145
151 1 7 45 45 31 -1
152 1 7 45 45 32 146
153 1 7 46 44 33 -1
154 1 7 47 44 33 148
155 1 7 46 43 32 149
156 1 7 45 44 31 -1
157 1 7 46 45 31 -1
158 1 7 46 46 31 143
159 1 7 46 47 31 -1
160 0 8 143 169 63 -1
161 0 8 144 168 63 -1
162 0 8 145 169 62 172
163 0 8 146 170 61 170
164 0 8 145 170 60 -1
165 0 8 144 169 60 -1
166 0 8 144 168 60 173
167 0 8 145 168 60 -1
168 0 8 144 168 61 178
169 0 8 145 169 60 -1
170 1 8 146 169 61 163
171 1 8 147 168 62 -1
172 1 8 146 168 61 162
173 1 8 145 168 61 166
174 1 8 144 167 60 -1
175 1 8 144 166 59 -1
176 1 8 143 166 60 -1
177 1 8 144 166 60 -1
178 1 8 143 167 60 168
179 1 8 143 168 59 -1
180 0 9 182 89 167 -1
181 0 9 183 88 168 -1
182 0 9 183 87 169 192
183 0 9 184 86 169 -1
184 0 9 185 87 169 -1
185 0 9 185 88 169 -1
186 0 9 186 88 169 -1
187 0 9 186 87 170 -1
188 0 9 185 88 170 194
189 0 9 184 87 171 193
190 1 9 184 88 172 -1
191 1 9 183 87 171 -1
192 1 9 183 87 170 182
193 1 9 183 88 170 189
194 1 9 184 89 170 188
195 1 9 184 90 171 -1
196 1 9 183 90 172 -1
197 1 9 184 91 173 -1
198 1 9 185 92 172 -1
199 1 9 185 92 171 -1
200 0 10 19 140 111 218
201 0 10 18 139 110 -1
202 0 10 19 139 109 213
203 0 10 20 140 108 -1
204 0 10 21 141 109 214
205 0 10 22 141 108 -1
206 0 10 23 141 109 -1
207 0 10 22 141 109 210
208 0 10 21 140 109 -1
209 0 10 22 139 109 216
210 1 10 21 140 110 207
211 1 10 20 140 109 -1
212 1 10 19 140 108 -1
213 1 10 19 140 109 202
214 1 10 20 140 110 204
215 1 10 21 139 111 -1
216 1 10 21 138 110 209
217 1 10 20 139 110 -1
218 1 10 20 140 111 200
219 1 10 20 139 111 -1
220 0 11 151 3 83 -1
221 0 11 150 2 82 233
222 0 11 149 3 83 237
223 0 11 149 4 83 234
224 0 11 148 4 83 231
225 0 11 147 4 83 -1
226 0 11 147 3 84 236
227 0 11 146 2 83 -1
228 0 11 147 3 83 230
229 0 11 148 3 82 -1
230 1 11 148 4 82 228
231 1 11 147 4 82 224
232 1 11 148 3 83 -1
233 1 11 149 2 83 221
234 1 11 148 3 84 223
235 1 11 148 2 85 -1
236 1 11 147 2 85 226
237 1 11 148 2 84 222
238 1 11 149 3 85 -1
239 1 11 150 3 85 -1
240 0 12 64 172 58 255
241 0 12 63 172 59 254
242 0 12 64 172 59 256
243 0 12 64 172 60 257
244 0 12 65 172 61 -1
245 0 12 66 172 61 -1
246 0 12 65 172 60 252
247 0 12 66 173 60 253
248 0 12 67 173 59 -1
249 0 12 67 173 58 250
250 1 12 68 174 59 249
251 1 12 67 174 58 -1
252 1 12 66 173 59 246
253 1 12 65 174 59 247
254 1 12 64 173 60 241
255 1 12 64 173 59 240
256 1 12 65 172 58 242
257 1 12 65 171 59 243
258 1 12 65 170 58 -1
259 1 12 65 169 58 -1
260 0 13 89 75 107 -1
261 0 13 90 74 106 -1
262 0 13 90 74 105 -1
263 0 13 89 74 105 279
264 0 13 90 73 106 275
265 0 13 89 72 106 -1
266 0 13 88 72 106 276
267 0 13 88 72 107 -1
268 0 13 88 71 107 273
269 0 13 89 72 108 270
270 1 13 88 71 109 269
271 1 13 89 71 108 -1
272 1 13 88 72 109 -1
273 1 13 88 72 108 268
274 1 13 88 71 108 -1
275 1 13 89 72 107 264
276 1 13 88 73 107 266
277 1 13 89 73 107 -1
278 1 13 89 73 106 -1
279 1 13 88 74 105 263
280 0 14 125 5 85 -1
281 0 14 126 6 86 -1
282 0 14 125 5 86 -1
283 0 14 126 4 85 292
284 0 14 125 3 84 -1
285 0 14 126 2 84 -1
286 0 14 127 2 84 -1
287 0 14 127 3 84 -1
288 0 14 127 4 84 -1
289 0 14 127 5 85 293
290 1 14 126 5 86 -1
291 1 14 127 6 85 -1
292 1 14 127 5 86 283
293 1 14 128 5 85 289
294 1 14 129 6 85 -1
295 1 14 129 5 86 -1
296 1 14 129 6 87 -1
297 1 14 130 6 88 -1
298 1 14 130 5 88 -1
299 1 14 129 6 89 -1
300 0 15 6 83 171 -1
301 0 15 7 83 172 -1
302 0 15 8 84 173 -1
303 0 15 7 84 173 -1
304 0 15 7 85 174 -1
305 0 15 6 84 174 315
306 0 15 5 83 175 316
307 0 15 4 82 176 312
308 0 15 5 82 175 313
309 0 15 4 82 175 310
310 1 15 3 82 176 309
311 1 15 3 83 176 -1
312 1 15 4 82 177 307
313 1 15 4 81 176 308
314 1 15 5 82 176 -1
315 1 15 6 83 175 305
316 1 15 6 84 175 306
317 1 15 5 84 176 -1
318 1 15 5 84 177 -1
319 1 15 6 84 177 -1
320 0 16 55 119 23 336
321 0 16 55 120 23 335
322 0 16 55 121 24 338
323 0 16 54 120 23 337
324 0 16 55 120 22 331
325 0 16 56 119 21 330
326 0 16 55 119 21 -1
327 0 16 55 119 22 334
328 0 16 55 118 21 -1
329 0 16 56 118 22 333
330 1 16 57 118 21 325
331 1 16 56 119 22 324
332 1 16 57 120 22 -1
333 1 16 57 119 23 329
334 1 16 56 120 23 327
335 1 16 55 119 24 321
336 1 16 54 120 24 320
337 1 16 55 121 23 323
338 1 16 56 122 23 322
339 1 16 57 121 23 -1
340 0 17 165 118 157 356
341 0 17 166 119 156 358
342 0 17 165 120 157 357
343 0 17 164 119 158 -1
344 0 17 163 119 158 353
345 0 17 162 119 158 354
346 0 17 162 118 158 -1
347 0 17 161 118 159 351
348 0 17 161 119 159 350
349 0 17 160 119 160 -1
350 1 17 161 119 160 348
351 1 17 160 119 159 347
352 1 17 161 120 159 -1
353 1 17 162 120 158 344
354 1 17 162 120 157 345
355 1 17 163 119 157 -1
356 1 17 164 119 157 340
357 1 17 165 119 156 342
358 1 17 165 120 156 341
359 1 17 166 121 155 -1
360 0 18 7 141 1 -1
361 0 18 8 140 0 -1
362 0 18 8 140 199 -1
363 0 18 7 139 0 -1
364 0 18 6 138 199 375
365 0 18 5 137 199 377
366 0 18 5 138 198 374
367 0 18 6 137 197 376
368 0 18 6 137 196 372
369 0 18 6 138 195 370
370 1 18 5 138 196 369
371 1 18 6 139 197 -1
372 1 18 6 138 196 368
373 1 18 5 137 196 -1
374 1 18 5 137 197 366
375 1 18 5 137 198 364
376 1 18 6 136 197 367
377 1 18 6 137 198 365
378 1 18 5 138 199 -1
379 1 18 4 139 199 -1
380 0 19 94 133 19 -1
381 0 19 93 133 19 -1
382 0 19 93 134 20 -1
383 0 19 92 133 19 392
384 0 19 91 134 19 391
385 0 19 90 133 20 390
386 0 19 91 132 19 -1
387 0 19 91 133 20 394
388 0 19 90 134 21 -1
389 0 19 90 134 20 -1
390 1 19 91 133 19 385
391 1 19 90 133 19 384
392 1 19 91 133 18 383
393 1 19 92 134 18 -1
394 1 19 92 134 19 387
395 1 19 92 135 18 -1
396 1 19 93 136 19 -1
397 1 19 92 136 19 -1
398 1 19 93 136 20 -1
399 1 19 92 136 20 -1
400 0 20 14 92 101 417
401 0 20 13 93 101 412
402 0 20 14 92 102 415
403 0 20 13 93 103 411
404 0 20 14 92 104 -1
405 0 20 13 92 103 410
406 0 20 13 92 102 -1
407 0 20 14 93 102 413
408 0 20 13 94 103 -1
409 0 20 13 94 104 -1
410 1 20 12 93 103 405
411 1 20 13 93 102 403
412 1 20 14 94 102 401
413 1 20 15 93 101 407
414 1 20 14 92 100 -1
415 1 20 14 91 101 402
416 1 20 13 90 100 -1
417 1 20 13 91 100 400
418 1 20 13 90 101 -1
419 1 20 14 89 102 -1
420 0 21 142 112 163 438
421 0 21 142 112 162 437
422 0 21 143 112 161 433
423 0 21 143 113 160 435
424 0 21 143 113 161 431
425 0 21 144 112 161 436
426 0 21 144 111 160 -1
427 0 21 144 110 160 -1
428 0 21 145 110 160 430
429 0 21 145 111 159 -1
430 1 21 145 111 160 428
431 1 21 144 112 160 424
432 1 21 145 112 161 -1
433 1 21 144 113 162 422
434 1 21 145 114 161 -1
435 1 21 144 113 161 423
436 1 21 143 113 162 425
437 1 21 143 112 163 421
438 1 21 142 112 164 420
439 1 21 141 113 165 -1
440 0 22 155 185 139 456
441 0 22 155 184 140 -1
442 0 22 155 184 141 -1
443 0 22 155 185 141 453
444 0 22 155 184 142 452
445 0 22 155 183 142 -1
446 0 22 156 184 143 451
447 0 22 156 183 144 -1
448 0 22 157 184 145 450
449 0 22 156 184 145 -1
450 1 22 156 184 144 448
451 1 22 155 185 144 446
452 1 22 154 185 143 444
453 1 22 155 185 142 443
454 1 22 154 185 141 -1
455 1 22 153 185 140 -1
456 1 22 154 186 139 440
457 1 22 153 187 139 -1
458 1 22 153 188 140 -1
459 1 22 154 187 139 -1
460 0 23 96 115 5 -1
461 0 23 96 116 5 474
462 0 23 95 117 4 479
463 0 23 96 117 5 476
464 0 23 96 116 6 472
465 0 23 95 115 6 478
466 0 23 96 114 7 -1
467 0 23 96 115 7 471
468 0 23 97 114 6 470
469 0 23 98 114 5 473
470 1 23 98 115 6 468
471 1 23 97 116 7 467
472 1 23 97 115 6 464
473 1 23 98 115 5 469
474 1 23 97 116 5 461
475 1 23 96 117 4 -1
476 1 23 96 116 4 463
477 1 23 95 115 5 -1
478 1 23 94 116 5 465
479 1 23 95 117 5 462
480 0 24 75 186 110 -1
481 0 24 74 187 110 490
482 0 24 73 188 111 -1
483 0 24 74 188 110 492
484 0 24 74 189 110 496
485 0 24 73 188 109 -1
486 0 24 73 187 109 491
487 0 24 72 188 108 -1
488 0 24 73 189 109 493
489 0 24 74 188 109 -1
490 1 24 73 187 110 481
491 1 24 72 187 109 486
492 1 24 73 188 110 483
493 1 24 74 189 109 488
494 1 24 74 190 110 -1
495 1 24 74 191 111 -1
496 1 24 75 190 111 484
497 1 24 76 191 110 -1
498 1 24 75 191 110 -1
499 1 24 74 192 110 -1
500 0 25 19 118 60 -1
501 0 25 20 117 61 512
502 0 25 21 116 61 510
503 0 25 20 117 60 514
504 0 25 20 116 60 513
505 0 25 20 115 61 516
506 0 25 21 114 62 -1
507 0 25 20 114 62 511
508 0 25 19 114 61 519
509 0 25 20 115 60 518
510 1 25 21 115 61 502
511 1 25 21 115 62 507
512 1 25 20 116 61 501
513 1 25 19 115 61 504
514 1 25 19 116 60 503
515 1 25 18 115 59 -1
516 1 25 19 114 60 505
517 1 25 18 114 59 -1
518 1 25 19 114 59 509
519 1 25 18 115 60 508
520 0 26 131 47 99 -1
521 0 26 130 48 98 -1
522 0 26 129 48 99 539
523 0 26 128 47 99 538
524 0 26 127 47 98 535
525 0 26 128 48 99 536
526 0 26 129 47 99 537
527 0 26 128 46 100 533
528 0 26 129 47 101 534
529 0 26 129 48 102 531
530 1 26 129 48 103 -1
531 1 26 128 48 103 529
532 1 26 128 47 102 -1
533 1 26 129 46 101 527
534 1 26 128 47 100 528
535 1 26 127 48 99 524
536 1 26 128 49 100 525
537 1 26 128 48 100 526
538 1 26 129 48 100 523
539 1 26 130 49 100 522
540 0 27 84 79 91 -1
541 0 27 83 79 91 558
542 0 27 83 79 90 552
543 0 27 84 78 90 -1
544 0 27 84 79 90 -1
545 0 27 84 80 91 -1
546 0 27 83 79 92 -1
547 0 27 82 78 91 -1
548 0 27 82 79 92 -1
549 0 27 83 80 91 -1
550 1 27 82 81 91 -1
551 1 27 81 81 90 -1
552 1 27 82 80 91 542
553 1 27 81 80 92 -1
554 1 27 80 79 91 -1
555 1 27 81 79 92 -1
556 1 27 82 79 93 -1
557 1 27 82 78 93 -1
558 1 27 82 78 92 541
559 1 27 81 79 91 -1
560 0 28 14 103 26 573
561 0 28 15 102 26 -1
562 0 28 15 102 25 -1
563 0 28 15 103 26 -1
564 0 28 16 102 27 578
565 0 28 17 103 26 579
566 0 28 17 103 27 -1
567 0 28 16 104 28 -1
568 0 28 15 104 28 571
569 0 28 14 105 29 570
570 1 28 15 105 29 569
571 1 28 15 104 29 568
572 1 28 15 103 28 -1
573 1 28 15 102 27 560
574 1 28 16 101 27 -1
575 1 28 15 100 27 -1
576 1 28 15 101 26 -1
577 1 28 16 102 26 -1
578 1 28 17 102 26 564
579 1 28 17 102 27 565
580 0 29 171 39 162 595
581 0 29 170 40 163 599
582 0 29 169 40 164 596
583 0 29 169 40 163 593
584 0 29 170 39 164 591
585 0 29 170 40 164 -1
586 0 29 171 41 164 -1
587 0 29 172 41 165 -1
588 0 29 172 40 164 -1
589 0 29 172 39 163 -1
590 1 29 171 40 164 -1
591 1 29 171 39 163 584
592 1 29 170 39 162 -1
593 1 29 169 40 162 583
594 1 29 169 41 162 -1
595 1 29 170 40 162 580
596 1 29 169 41 163 582
597 1 29 170 42 164 -1
598 1 29 170 42 163 -1
599 1 29 171 41 163 581
600 0 30 68 190 172 615
601 0 30 67 191 173 -1
602 0 30 68 192 174 -1
603 0 30 67 193 174 -1
604 0 30 66 194 173 -1
605 0 30 67 193 173 -1
606 0 30 68 193 172 613
607 0 30 68 194 173 612
608 0 30 67 194 174 -1
609 0 30 66 193 173 610
610 1 30 65 194 174 609
611 1 30 66 193 174 -1
612 1 30 67 194 173 607
613 1 30 67 193 172 606
614 1 30 67 192 173 -1
615 1 30 68 191 172 600
616 1 30 69 190 171 -1
617 1 30 68 189 170 -1
618 1 30 69 190 170 -1
619 1 30 70 191 169 -1
620 0 31 145 53 73 -1
621 0 31 146 53 74 638
622 0 31 147 53 75 637
623 0 31 147 54 74 -1
624 0 31 146 53 75 636
625 0 31 146 52 76 635
626 0 31 145 53 77 633
627 0 31 146 53 78 631
628 0 31 147 53 78 630
629 0 31 148 54 78 -1
630 1 31 147 53 79 628
631 1 31 146 52 79 627
632 1 31 147 52 78 -1
633 1 31 146 53 77 626
634 1 31 145 53 76 -1
635 1 31 145 52 75 625
636 1 31 146 53 76 624
637 1 31 147 52 76 622
638 1 31 147 52 75 621
639 1 31 146 51 75 -1
640 0 32 73 60 144 651
641 0 32 74 61 144 653
642 0 32 73 61 144 652
643 0 32 72 61 143 654
644 0 32 73 61 142 656
645 0 32 73 61 141 -1
646 0 32 74 60 142 659
647 0 32 74 60 141 -1
648 0 32 75 61 142 -1
649 0 32 74 60 143 650
650 1 32 75 60 144 649
651 1 32 74 61 145 640
652 1 32 74 62 144 642
653 1 32 73 61 145 641
654 1 32 72 62 144 643
655 1 32 71 61 143 -1
656 1 32 72 60 143 644
657 1 32 72 59 143 -1
658 1 32 73 58 143 -1
659 1 32 74 59 142 646
660 0 33 9 173 25 -1
661 0 33 10 172 24 -1
662 0 33 9 172 24 -1
663 0 33 8 173 24 -1
664 0 33 9 173 23 675
665 0 33 10 173 23 674
666 0 33 10 173 22 -1
667 0 33 10 173 21 671
668 0 33 10 174 21 670
669 0 33 9 173 21 673
670 1 33 9 174 20 668
671 1 33 9 174 21 667
672 1 33 8 173 22 -1
673 1 33 8 174 22 669
674 1 33 9 174 23 665
675 1 33 10 174 24 664
676 1 33 11 174 24 -1
677 1 33 12 175 23 -1
678 1 33 12 176 23 -1
679 1 33 11 176 22 -1
680 0 34 149 76 93 -1
681 0 34 150 77 93 -1
682 0 34 151 77 93 -1
683 0 34 152 78 94 698
684 0 34 153 78 94 695
685 0 34 152 79 94 691
686 0 34 153 80 93 690
687 0 34 153 81 92 -1
688 0 34 152 81 93 -1
689 0 34 153 80 92 692
690 1 34 152 80 93 686
691 1 34 153 79 94 685
692 1 34 154 80 93 689
693 1 34 155 79 94 -1
694 1 34 155 78 95 -1
695 1 34 154 79 94 684
696 1 34 155 78 94 -1
697 1 34 154 78 94 -1
698 1 34 153 77 95 683
699 1 34 154 76 95 -1
700 0 35 52 77 165 -1
701 0 35 52 77 164 712
702 0 35 51 76 164 716
703 0 35 50 76 163 717
704 0 35 50 77 163 715
705 0 35 51 77 163 714
706 0 35 51 77 162 -1
707 0 35 52 76 163 -1
708 0 35 53 77 162 -1
709 0 35 53 78 163 711
710 1 35 54 77 164 -1
711 1 35 53 77 164 709
712 1 35 52 78 163 701
713 1 35 52 77 163 -1
714 1 35 52 76 162 705
715 1 35 51 76 162 704
716 1 35 50 75 163 702
717 1 35 51 75 164 703
718 1 35 51 74 163 -1
719 1 35 52 74 164 -1
720 0 36 179 55 106 -1
721 0 36 180 56 106 -1
722 0 36 180 57 105 735
723 0 36 180 58 105 736
724 0 36 179 59 106 730
725 0 36 180 59 106 737
726 0 36 181 60 105 738
727 0 36 182 60 105 -1
728 0 36 181 59 104 731
729 0 36 180 59 105 732
730 1 36 179 59 105 724
731 1 36 180 60 104 728
732 1 36 179 59 104 729
733 1 36 178 58 104 -1
734 1 36 178 57 104 -1
735 1 36 179 58 105 722
736 1 36 180 58 104 723
737 1 36 181 59 105 725
738 1 36 180 59 104 726
739 1 36 181 58 104 -1
740 0 37 23 87 88 752
741 0 37 24 87 89 -1
742 0 37 25 87 88 751
743 0 37 25 87 89 753
744 0 37 24 87 88 755
745 0 37 25 87 87 -1
746 0 37 25 88 87 759
747 0 37 24 87 86 -1
748 0 37 24 88 86 -1
749 0 37 25 87 86 -1
750 1 37 26 87 87 -1
751 1 37 25 86 87 742
752 1 37 24 86 88 740
753 1 37 25 86 89 743
754 1 37 24 87 90 -1
755 1 37 23 88 89 744
756 1 37 23 88 88 -1
757 1 37 24 88 87 -1
758 1 37 25 88 86 -1
759 1 37 25 89 86 746
760 0 38 80 22 43 -1
761 0 38 80 21 42 -1
762 0 38 81 22 42 -1
763 0 38 82 21 42 775
764 0 38 83 20 43 778
765 0 38 84 19 42 772
766 0 38 85 18 43 -1
767 0 38 84 19 43 771
768 0 38 83 20 42 774
769 0 38 82 19 43 770
770 1 38 82 18 43 769
771 1 38 83 19 42 767
772 1 38 84 20 41 765
773 1 38 84 19 41 -1
774 1 38 83 20 41 768
775 1 38 83 21 42 763
776 1 38 82 20 41 -1
777 1 38 81 20 42 -1
778 1 38 82 21 43 764
779 1 38 82 22 44 -1
780 0 39 94 144 187 -1
781 0 39 93 143 186 796
782 0 39 92 144 185 -1
783 0 39 93 145 185 -1
784 0 39 94 145 185 793
785 0 39 93 145 186 798
786 0 39 94 146 185 792
787 0 39 95 145 185 -1
788 0 39 94 144 184 797
789 0 39 93 143 184 791
790 1 39 94 143 184 -1
791 1 39 94 144 185 789
792 1 39 95 145 184 786
793 1 39 95 144 185 784
794 1 39 96 143 184 -1
795 1 39 95 142 185 -1
796 1 39 94 142 186 781
797 1 39 95 143 185 788
798 1 39 94 144 186 785
799 1 39 94 143 185 -1
800 0 40 123 117 155 -1
801 0 40 123 118 154 -1
802 0 40 124 119 154 810
803 0 40 124 120 153 819
804 0 40 124 120 154 811
805 0 40 125 121 154 818
806 0 40 125 122 153 -1
807 0 40 126 122 153 -1
808 0 40 127 121 154 -1
809 0 40 126 120 153 -1
810 1 40 125 120 153 802
811 1 40 125 119 154 804
812 1 40 126 118 154 -1
813 1 40 127 118 155 -1
814 1 40 127 118 156 -1
815 1 40 127 119 155 -1
816 1 40 126 119 155 -1
817 1 40 127 120 154 -1
818 1 40 126 121 154 805
819 1 40 125 121 153 803
820 0 41 175 135 174 -1
821 0 41 176 136 174 -1
822 0 41 175 135 173 835
823 0 41 175 135 172 836
824 0 41 176 136 172 831
825 0 41 177 135 172 833
826 0 41 176 135 171 837
827 0 41 175 135 171 834
828 0 41 175 136 172 -1
829 0 41 176 137 173 -1
830 1 41 177 138 173 -1
831 1 41 176 137 172 824
832 1 41 177 136 172 -1
833 1 41 176 136 171 825
834 1 41 175 136 171 827
835 1 41 176 135 172 822
836 1 41 175 134 171 823
837 1 41 176 134 170 826
838 1 41 177 133 169 -1
839 1 41 176 134 169 -1
840 0 42 45 68 173 859
841 0 42 44 69 173 -1
842 0 42 43 69 174 855
843 0 42 44 70 175 858
844 0 42 45 70 175 853
845 0 42 44 69 174 -1
846 0 42 43 69 175 -1
847 0 42 43 70 176 852
848 0 42 43 69 177 851
849 0 42 43 68 178 850
850 1 42 42 68 178 849
851 1 42 43 68 177 848
852 1 42 43 69 176 847
853 1 42 44 70 176 844
854 1 42 45 69 176 -1
855 1 42 44 68 175 842
856 1 42 45 67 174 -1
857 1 42 46 68 174 -1
858 1 42 45 69 175 843
859 1 42 45 69 174 840
860 0 43 1 26 85 -1
861 0 43 0 27 85 -1
862 0 43 199 27 84 -1
863 0 43 198 26 84 -1
864 0 43 197 25 84 876
865 0 43 196 26 85 870
866 0 43 196 27 84 879
867 0 43 196 26 84 878
868 0 43 196 25 84 -1
869 0 43 197 24 84 -1
870 1 43 197 25 85 865
871 1 43 196 24 86 -1
872 1 43 196 25 87 -1
873 1 43 197 24 86 -1
874 1 43 197 24 85 -1
875 1 43 196 23 84 -1
876 1 43 196 24 83 864
877 1 43 197 25 82 -1
878 1 43 197 26 83 867
879 1 43 196 27 83 866
880 0 44 141 120 191 891
881 0 44 141 121 190 -1
882 0 44 142 122 191 -1
883 0 44 142 122 192 892
884 0 44 142 123 191 -1
885 0 44 143 122 191 894
886 0 44 142 121 191 890
887 0 44 143 121 192 893
888 0 44 144 120 192 -1
889 0 44 144 119 191 -1
890 1 44 143 120 191 886
891 1 44 142 120 192 880
892 1 44 142 121 192 883
893 1 44 143 122 192 887
894 1 44 144 122 191 885
895 1 44 145 122 190 -1
896 1 44 146 121 191 -1
897 1 44 147 121 192 -1
898 1 44 146 121 192 -1
899 1 44 147 122 193 -1
900 0 45 134 95 174 913
901 0 45 135 96 175 -1
902 0 45 134 96 175 914
903 0 45 135 97 174 918
904 0 45 134 96 174 -1
905 0 45 133 96 173 919
906 0 45 132 97 172 -1
907 0 45 131 96 173 916
908 0 45 132 95 173 912
909 0 45 132 94 174 911
910 1 45 133 93 173 -1
911 1 45 133 93 174 909
912 1 45 133 94 173 908
913 1 45 134 94 174 900
914 1 45 133 95 175 902
915 1 45 132 96 174 -1
916 1 45 132 97 173 907
917 1 45 133 96 174 -1
918 1 45 134 97 173 903
919 1 45 133 97 172 905
920 0 46 185 9 19 936
921 0 46 186 8 20 932
922 0 46 185 7 21 935
923 0 46 185 8 21 938
924 0 46 185 8 22 937
925 0 46 184 7 23 -1
926 0 46 185 6 22 -1
927 0 46 184 6 22 -1
928 0 46 185 5 21 930
929 0 46 185 5 20 931
930 1 46 186 5 20 928
931 1 46 186 6 20 929
932 1 46 187 7 20 921
933 1 46 186 6 19 -1
934 1 46 186 7 19 -1
935 1 46 186 7 20 922
936 1 46 185 8 20 920
937 1 46 186 8 21 924
938 1 46 186 9 22 923
939 1 46 187 10 22 -1
940 0 47 136 73 179 -1
941 0 47 135 74 179 957
942 0 47 134 74 179 955
943 0 47 134 75 179 953
944 0 47 133 76 180 -1
945 0 47 132 77 179 -1
946 0 47 131 77 178 -1
947 0 47 131 76 177 -1
948 0 47 131 75 176 950
949 0 47 131 75 175 951
950 1 47 132 74 175 948
951 1 47 132 75 176 949
952 1 47 133 75 177 -1
953 1 47 133 74 178 943
954 1 47 133 73 179 -1
955 1 47 133 74 180 942
956 1 47 134 73 179 -1
957 1 47 134 74 178 941
958 1 47 135 75 178 -1
959 1 47 135 75 177 -1
960 0 48 161 97 43 972
961 0 48 161 98 43 970
962 0 48 160 98 42 974
963 0 48 159 98 41 977
964 0 48 160 99 41 -1
965 0 48 160 100 41 -1
966 0 48 160 99 42 973
967 0 48 161 100 41 -1
968 0 48 161 99 41 -1
969 0 48 161 98 41 -1
970 1 48 160 97 42 961
971 1 48 160 96 43 -1
972 1 48 161 97 44 960
973 1 48 160 98 43 966
974 1 48 159 97 42 962
975 1 48 159 97 43 -1
976 1 48 159 98 42 -1
977 1 48 158 99 42 963
978 1 48 159 100 41 -1
979 1 48 158 100 41 -1
980 0 49 11 88 42 -1
981 0 49 11 89 42 993
982 0 49 11 89 41 -1
983 0 49 10 89 40 -1
984 0 49 10 88 40 991
985 0 49 10 87 39 992
986 0 49 11 86 40 996
987 0 49 10 86 40 -1
988 0 49 9 85 40 990
989 0 49 10 85 39 -1
990 1 49 9 86 39 988
991 1 49 9 87 40 984
992 1 49 10 87 40 985
993 1 49 10 88 41 981
994 1 49 11 89 40 -1
995 1 49 11 88 39 -1
996 1 49 12 87 39 986
997 1 49 13 86 40 -1
998 1 49 13 86 39 -1
999 1 49 13 87 39 -1
1000 0 50 168 55 62 1016
1001 0 50 167 54 62 1019
1002 0 50 166 55 61 -1
1003 0 50 166 56 61 1013
1004 0 50 165 57 61 -1
1005 0 50 166 57 60 -1
1006 0 50 165 57 59 -1
1007 0 50 165 58 58 -1
1008 0 50 166 57 57 -1
1009 0 50 167 56 57 1010
1010 1 50 166 57 58 1009
1011 1 50 166 58 58 -1
1012 1 50 166 57 59 -1
1013 1 50 167 57 60 1003
1014 1 50 167 56 60 -1
1015 1 50 168 56 61 -1
1016 1 50 169 56 61 1000
1017 1 50 169 55 62 -1
1018 1 50 168 56 62 -1
1019 1 50 168 55 63 1001
1020 0 51 2 106 120 -1
1021 0 51 2 105 121 -1
1022 0 51 2 106 121 -1
1023 0 51 2 107 120 -1
1024 0 51 2 108 121 1037
1025 0 51 3 109 122 1039
1026 0 51 3 109 123 1038
1027 0 51 2 108 124 1031
1028 0 51 3 108 124 -1
1029 0 51 2 109 123 1030
1030 1 51 2 109 124 1029
1031 1 51 1 108 124 1027
1032 1 51 0 108 124 -1
1033 1 51 1 109 123 -1
1034 1 51 0 109 123 -1
1035 1 51 1 108 123 -1
1036 1 51 1 109 122 -1
1037 1 51 2 109 122 1024
1038 1 51 3 110 122 1026
1039 1 51 4 109 121 1025
1040 0 52 144 54 25 1052
1041 0 52 145 55 26 -1
1042 0 52 145 54 26 -1
1043 0 52 145 53 25 1053
1044 0 52 145 52 24 -1
1045 0 52 145 53 24 1054
1046 0 52 145 54 23 1050
1047 0 52 144 55 23 -1
1048 0 52 143 55 23 -1
1049 0 52 144 55 24 1051
1050 1 52 144 54 23 1046
1051 1 52 143 54 24 1049
1052 1 52 143 54 25 1040
1053 1 52 144 53 25 1043
1054 1 52 144 53 24 1045
1055 1 52 145 53 23 -1
1056 1 52 144 52 24 -1
1057 1 52 145 51 23 -1
1058 1 52 145 50 24 -1
1059 1 52 146 51 25 -1
1060 0 53 46 55 103 1076
1061 0 53 46 54 103 1077
1062 0 53 45 54 102 -1
1063 0 53 45 55 103 -1
1064 0 53 45 56 104 1075
1065 0 53 46 56 104 1074
1066 0 53 46 57 105 -1
1067 0 53 45 56 106 1073
1068 0 53 45 57 107 1070
1069 0 53 45 56 107 -1
1070 1 53 46 57 107 1068
1071 1 53 46 56 106 -1
1072 1 53 47 55 105 -1
1073 1 53 46 55 106 1067
1074 1 53 46 56 105 1065
1075 1 53 46 57 104 1064
1076 1 53 47 56 104 1060
1077 1 53 46 55 104 1061
1078 1 53 47 54 103 -1
1079 1 53 47 55 102 -1
1080 0 54 33 18 112 1097
1081 0 54 33 19 112 -1
1082 0 54 33 19 111 1098
1083 0 54 33 19 110 -1
1084 0 54 32 19 109 1096
1085 0 54 33 20 109 1092
1086 0 54 32 20 108 1093
1087 0 54 31 21 108 1090
1088 0 54 31 21 109 1091
1089 0 54 30 21 109 -1
1090 1 54 31 22 108 1087
1091 1 54 32 22 109 1088
1092 1 54 33 21 108 1085
1093 1 54 33 20 108 1086
1094 1 54 32 20 109 -1
1095 1 54 33 19 109 -1
1096 1 54 33 18 110 1084
1097 1 54 34 19 111 1080
1098 1 54 33 18 111 1082
1099 1 54 32 17 110 -1
1100 0 55 198 136 148 -1
1101 0 55 197 136 148 -1
1102 0 55 196 137 149 -1
1103 0 55 197 138 148 -1
1104 0 55 197 139 148 -1
1105 0 55 198 139 148 1116
1106 0 55 198 140 147 1118
1107 0 55 199 140 146 -1
1108 0 55 199 141 146 1110
1109 0 55 199 141 147 1119
1110 1 55 198 142 147 1108
1111 1 55 197 143 147 -1
1112 1 55 197 142 147 -1
1113 1 55 198 141 146 -1
1114 1 55 199 142 147 -1
1115 1 55 198 141 148 -1
1116 1 55 199 140 147 1105
1117 1 55 0 140 146 -1
1118 1 55 199 139 147 1106
1119 1 55 0 140 147 1109
1120 0 56 30 149 128 1133
1121 0 56 31 148 128 1134
1122 0 56 31 149 128 1137
1123 0 56 31 149 129 -1
1124 0 56 32 149 130 -1
1125 0 56 31 150 129 1130
1126 0 56 31 151 130 1131
1127 0 56 30 150 131 1135
1128 0 56 31 149 130 -1
1129 0 56 30 150 129 -1
1130 1 56 30 151 128 1125
1131 1 56 30 152 129 1126
1132 1 56 30 151 129 -1
1133 1 56 30 150 128 1120
1134 1 56 30 149 129 1121
1135 1 56 29 149 130 1127
1136 1 56 29 149 129 -1
1137 1 56 30 148 129 1122
1138 1 56 31 147 128 -1
1139 1 56 30 146 128 -1
1140 0 57 44 54 72 1152
1141 0 57 45 54 73 1156
1142 0 57 44 54 73 1157
1143 0 57 44 53 72 1151
1144 0 57 44 53 73 -1
1145 0 57 44 52 72 1150
1146 0 57 44 53 71 -1
1147 0 57 43 52 71 -1
1148 0 57 42 53 72 1155
1149 0 57 43 52 72 -1
1150 1 57 43 53 72 1145
1151 1 57 43 54 72 1143
1152 1 57 44 55 73 1140
1153 1 57 44 56 72 -1
1154 1 57 43 55 72 -1
1155 1 57 43 54 73 1148
1156 1 57 44 55 74 1141
1157 1 57 45 54 74 1142
1158 1 57 45 54 75 -1
1159 1 57 44 55 76 -1
1160 0 58 117 79 143 -1
1161 0 58 118 80 144 -1
1162 0 58 119 81 144 1178
1163 0 58 120 82 144 -1
1164 0 58 119 81 145 1177
1165 0 58 119 82 146 1175
1166 0 58 120 83 147 -1
1167 0 58 119 82 148 -1
1168 0 58 119 83 149 -1
1169 0 58 119 84 148 -1
1170 1 58 120 84 147 -1
1171 1 58 121 84 147 -1
1172 1 58 120 85 146 -1
1173 1 58 119 84 145 -1
1174 1 58 118 83 146 -1
1175 1 58 119 83 146 1165
1176 1 58 118 82 146 -1
1177 1 58 118 81 146 1164
1178 1 58 118 81 145 1162
1179 1 58 119 82 145 -1
1180 0 59 4 79 165 -1
1181 0 59 3 79 166 1195
1182 0 59 4 79 166 -1
1183 0 59 3 78 166 1199
1184 0 59 2 78 166 1198
1185 0 59 1 78 167 -1
1186 0 59 1 78 166 1197
1187 0 59 1 79 167 1194
1188 0 59 1 79 168 1193
1189 0 59 2 78 169 1191
1190 1 59 3 79 170 -1
1191 1 59 3 78 170 1189
1192 1 59 2 77 169 -1
1193 1 59 1 78 169 1188
1194 1 59 1 78 168 1187
1195 1 59 2 79 167 1181
1196 1 59 3 80 167 -1
1197 1 59 2 79 166 1186
1198 1 59 1 78 165 1184
1199 1 59 2 78 165 1183
1200 0 60 176 161 67 1211
1201 0 60 176 161 66 -1
1202 0 60 177 161 67 1210
1203 0 60 177 160 67 1212
1204 0 60 178 159 68 -1
1205 0 60 179 160 68 -1
1206 0 60 178 160 67 -1
1207 0 60 178 161 68 -1
1208 0 60 177 162 67 -1
1209 0 60 177 161 66 -1
1210 1 60 178 161 67 1202
1211 1 60 177 160 68 1200
1212 1 60 176 161 68 1203
1213 1 60 175 162 68 -1
1214 1 60 174 162 68 -1
1215 1 60 173 163 67 -1
1216 1 60 172 162 66 -1
1217 1 60 172 163 66 -1
1218 1 60 171 162 66 -1
1219 1 60 172 161 67 -1
1220 0 61 195 94 65 -1
1221 0 61 194 94 65 -1
1222 0 61 194 95 65 -1
1223 0 61 194 95 64 -1
1224 0 61 194 96 64 1235
1225 0 61 193 96 65 -1
1226 0 61 192 95 64 1236
1227 0 61 191 95 64 1231
1228 0 61 191 94 63 1230
1229 0 61 191 93 62 1232
1230 1 61 190 94 63 1228
1231 1 61 190 94 64 1227
1232 1 61 191 93 63 1229
1233 1 61 192 94 64 -1
1234 1 61 193 94 65 -1
1235 1 61 193 95 65 1224
1236 1 61 193 94 64 1226
1237 1 61 193 95 64 -1
1238 1 61 193 95 63 -1
1239 1 61 192 96 64 -1
1240 0 62 15 115 65 -1
1241 0 62 16 114 65 1255
1242 0 62 17 113 66 1253
1243 0 62 17 114 65 1254
1244 0 62 16 114 66 -1
1245 0 62 17 114 66 1252
1246 0 62 17 113 67 -1
1247 0 62 18 112 67 1251
1248 0 62 17 113 68 1250
1249 0 62 18 112 69 -1
1250 1 62 17 113 69 1248
1251 1 62 18 113 68 1247
1252 1 62 18 113 67 1245
1253 1 62 17 114 67 1242
1254 1 62 18 114 66 1243
1255 1 62 17 115 65 1241
1256 1 62 17 116 65 -1
1257 1 62 18 117 64 -1
1258 1 62 19 117 64 -1
1259 1 62 19 116 65 -1
1260 0 63 193 41 187 -1
1261 0 63 192 40 188 1270
1262 0 63 193 40 187 1271
1263 0 63 192 39 187 -1
1264 0 63 191 40 188 -1
1265 0 63 191 40 187 -1
1266 0 63 192 41 188 -1
1267 0 63 193 40 188 1272
1268 0 63 193 39 188 -1
1269 0 63 192 40 187 -1
1270 1 63 193 39 187 1261
1271 1 63 194 40 188 1262
1272 1 63 193 41 188 1267
1273 1 63 193 42 189 -1
1274 1 63 193 43 188 -1
1275 1 63 193 44 189 -1
1276 1 63 193 43 189 -1
1277 1 63 194 43 188 -1
1278 1 63 195 43 187 -1
1279 1 63 195 44 188 -1
1280 0 64 141 196 39 1295
1281 0 64 140 195 39 1296
1282 0 64 140 194 38 1293
1283 0 64 141 193 39 1294
1284 0 64 140 192 39 1292
1285 0 64 141 191 38 -1
1286 0 64 140 191 38 1290
1287 0 64 139 191 38 1291
1288 0 64 139 191 37 -1
1289 0 64 138 191 37 -1
1290 1 64 139 192 38 1286
1291 1 64 140 192 38 1287
1292 1 64 140 193 39 1284
1293 1 64 141 193 38 1282
1294 1 64 142 194 38 1283
1295 1 64 142 195 39 1280
1296 1 64 141 196 38 1281
1297 1 64 140 197 37 -1
1298 1 64 141 198 37 -1
1299 1 64 142 197 37 -1
1300 0 65 139 71 59 1314
1301 0 65 139 71 58 -1
1302 0 65 138 72 59 1313
1303 0 65 139 72 58 -1
1304 0 65 140 73 58 -1