ITEM: TIMESTEP
0
ITEM: NUMBER OF ATOMS
10000
ITEM: BOX BOUNDS pp pp pp
0 200
0 200
0 200
ITEM: ATOMS id type mol x y z bP
0 0 0 158 122 194 -1
1 0 0 157 122 195 -1
2 0 0 158 123 194 11
3 0 0 159 123 195 12
4 0 0 159 122 194 -1
5 0 0 158 121 194 18
6 0 0 157 121 194 19
7 0 0 156 122 194 17
8 0 0 157 123 195 15
9 0 0 158 123 195 13
10 1 0 157 123 194 -1
11 1 0 157 124 194 2
12 1 0 158 124 195 3
13 1 0 159 124 196 9
14 1 0 159 124 197 -1
15 1 0 158 123 196 8
16 1 0 158 122 195 -1
17 1 0 157 122 194 7
18 1 0 157 122 193 5
19 1 0 157 121 193 6
20 0 1 177 178 144 39
21 0 1 176 179 144 38
22 0 1 176 180 144 -1
23 0 1 176 179 143 -1
24 0 1 176 178 142 35
25 0 1 176 177 142 37
26 0 1 177 178 141 34
27 0 1 178 177 142 33
28 0 1 179 177 143 30
29 0 1 179 176 143 32
30 1 1 179 177 142 28
31 1 1 178 176 142 -1
32 1 1 178 177 143 29
33 1 1 177 178 142 27
34 1 1 176 178 141 26
35 1 1 177 177 141 24
36 1 1 176 176 142 -1
37 1 1 175 177 143 25
38 1 1 176 178 143 21
39 1 1 176 177 143 20
40 0 2 117 159 46 -1
41 0 2 116 158 47 55
42 0 2 117 158 46 54
43 0 2 118 158 47 56
44 0 2 117 157 47 57
45 0 2 116 156 48 53
46 0 2 117 155 48 51
47 0 2 117 154 48 52
48 0 2 116 153 49 -1
49 0 2 115 153 48 50
50 1 2 115 154 49 49
51 1 2 116 155 49 46
52 1 2 116 155 48 47
53 1 2 116 156 47 45
54 1 2 116 157 46 42
55 1 2 116 157 47 41
56 1 2 117 157 46 43
57 1 2 116 158 46 44
58 1 2 115 158 45 -1
59 1 2 114 159 46 -1
60 0 3 63 160 45 -1
61 0 3 64 160 46 -1
62 0 3 65 160 47 77
63 0 3 66 160 47 78
64 0 3 67 160 47 76
65 0 3 67 159 48 75
66 0 3 66 159 47 -1
67 0 3 66 158 47 74
68 0 3 67 157 47 71
69 0 3 67 156 48 70
70 1 3 67 156 47 69
71 1 3 68 157 47 68
72 1 3 68 158 48 -1
73 1 3 67 157 48 -1
74 1 3 67 158 47 67
75 1 3 67 158 48 65
76 1 3 66 159 48 64
77 1 3 65 160 48 62
78 1 3 66 160 48 63
79 1 3 67 160 49 -1
80 0 4 122 150 98 -1
81 0 4 123 150 97 92
82 0 4 123 150 96 91
83 0 4 124 151 95 95
84 0 4 124 151 96 -1
85 0 4 125 150 97 -1
86 0 4 124 149 98 93
87 0 4 124 150 99 -1
88 0 4 125 150 99 -1
89 0 4 124 149 99 -1
90 1 4 124 148 98 -1
91 1 4 123 149 97 82
92 1 4 124 150 97 81
93 1 4 125 150 98 86
94 1 4 124 151 97 -1
95 1 4 125 150 96 83
96 1 4 126 149 96 -1
97 1 4 126 149 95 -1
98 1 4 127 150 95 -1
99 1 4 128 149 95 -1
100 0 5 25 40 78 113
101 0 5 26 40 79 110
102 0 5 26 40 80 -1
103 0 5 25 39 80 111
104 0 5 25 38 80 -1
105 0 5 24 38 79 112
106 0 5 25 39 78 118
107 0 5 24 40 79 -1
108 0 5 24 39 78 -1
109 0 5 25 40 77 119
110 1 5 26 40 78 101
111 1 5 26 39 79 103
112 1 5 25 38 78 105
113 1 5 25 39 77 100
114 1 5 24 38 76 -1
115 1 5 24 38 75 -1
116 1 5 25 39 75 -1
117 1 5 25 39 76 -1
118 1 5 26 40 77 106
119 1 5 25 41 78 109
120 0 6 81 141 101 133
121 0 6 82 142 101 135
122 0 6 81 143 100 139
123 0 6 81 142 99 -1
124 0 6 80 141 98 131
125 0 6 80 141 99 130
126 0 6 79 140 100 -1
127 0 6 80 140 99 134
128 0 6 79 139 100 -1
129 0 6 80 139 99 132
130 1 6 81 140 98 125
131 1 6 80 140 98 124
132 1 6 79 140 99 129
133 1 6 80 140 100 120
134 1 6 81 141 100 127
135 1 6 81 142 101 121
136 1 6 80 143 101 -1
137 1 6 81 142 102 -1
138 1 6 82 143 102 -1
139 1 6 82 144 101 122
140 0 7 21 80 197 157
141 0 7 22 80 196 -1
142 0 7 21 79 195 -1
143 0 7 20 80 195 -1
144 0 7 20 81 195 153
145 0 7 20 82 196 159
146 0 7 20 81 197 156
147 0 7 21 82 198 158
148 0 7 21 83 197 155
149 0 7 22 82 196 152
150 1 7 23 83 195 -1
151 1 7 22 82 194 -1
152 1 7 21 83 195 149
153 1 7 21 82 194 144
154 1 7 22 83 195 -1
155 1 7 21 83 196 148
156 1 7 20 82 197 146
157 1 7 21 81 196 140
158 1 7 22 82 197 147
159 1 7 21 82 196 145
160 0 8 114 24 174 -1
161 0 8 113 24 174 174
162 0 8 114 23 173 177
163 0 8 114 24 172 -1
164 0 8 113 23 172 175
165 0 8 112 23 171 -1
166 0 8 112 24 172 173
167 0 8 113 24 173 179
168 0 8 112 25 172 -1
169 0 8 113 25 173 170
170 1 8 113 25 174 169
171 1 8 112 25 175 -1
172 1 8 112 25 174 -1
173 1 8 112 24 173 166
174 1 8 113 23 173 161
175 1 8 114 22 173 164
176 1 8 113 22 174 -1
177 1 8 114 22 174 162
178 1 8 113 23 174 -1
179 1 8 112 23 174 167
180 0 9 162 148 177 -1
181 0 9 163 147 178 192
182 0 9 164 148 179 -1
183 0 9 163 147 179 -1
184 0 9 164 146 179 -1
185 0 9 165 146 179 190
186 0 9 165 147 179 -1
187 0 9 164 147 179 -1
188 0 9 163 146 178 191
189 0 9 164 147 177 194
190 1 9 165 146 178 185
191 1 9 164 146 177 188
192 1 9 164 146 178 181
193 1 9 164 147 178 -1
194 1 9 164 148 177 189
195 1 9 165 147 176 -1
196 1 9 166 147 177 -1
197 1 9 167 146 177 -1
198 1 9 168 147 178 -1
199 1 9 169 146 178 -1
200 0 10 40 140 72 -1
201 0 10 41 140 73 219
202 0 10 41 141 72 218
203 0 10 41 140 72 217
204 0 10 41 141 73 214
205 0 10 40 142 72 215
206 0 10 39 141 73 212
207 0 10 38 141 73 213
208 0 10 38 142 74 210
209 0 10 38 142 75 211
210 1 10 37 142 74 208
211 1 10 37 143 74 209
212 1 10 38 142 73 206
213 1 10 39 142 74 207
214 1 10 40 142 73 204
215 1 10 41 143 73 205
216 1 10 41 142 72 -1
217 1 10 42 141 73 203
218 1 10 42 140 72 202
219 1 10 41 139 73 201
220 0 11 57 130 10 231
221 0 11 57 129 10 236
222 0 11 58 128 10 -1
223 0 11 57 128 9 238
224 0 11 57 129 9 237
225 0 11 57 130 8 234
226 0 11 58 131 8 -1
227 0 11 58 131 7 239
228 0 11 57 132 8 230
229 0 11 57 131 8 233
230 1 11 56 132 8 228
231 1 11 56 131 9 220
232 1 11 56 132 10 -1
233 1 11 57 132 9 229
234 1 11 58 131 9 225
235 1 11 58 130 9 -1
236 1 11 58 129 9 221
237 1 11 58 130 8 224
238 1 11 58 129 8 223
239 1 11 58 130 7 227
240 0 12 121 67 10 -1
241 0 12 121 68 10 259
242 0 12 122 69 11 252
243 0 12 123 70 10 257
244 0 12 122 71 10 256
245 0 12 121 72 10 250
246 0 12 121 73 9 -1
247 0 12 121 73 10 -1
248 0 12 121 74 10 -1
249 0 12 122 73 9 -1
250 1 12 122 72 10 245
251 1 12 121 71 11 -1
252 1 12 122 70 12 242
253 1 12 123 70 12 -1
254 1 12 123 71 13 -1
255 1 12 123 72 12 -1
256 1 12 123 71 11 244
257 1 12 122 70 10 243
258 1 12 121 70 10 -1
259 1 12 122 69 9 241
260 0 13 49 72 6 -1
261 0 13 48 72 6 -1
262 0 13 48 73 5 279
263 0 13 48 73 6 276
264 0 13 48 74 5 -1
265 0 13 47 75 6 275
266 0 13 47 76 6 274
267 0 13 46 75 7 273
268 0 13 45 75 6 270
269 0 13 44 74 5 271
270 1 13 44 75 6 268
271 1 13 45 74 5 269
272 1 13 46 74 6 -1
273 1 13 47 75 7 267
274 1 13 48 75 7 266
275 1 13 47 74 6 265
276 1 13 48 74 6 263
277 1 13 49 74 7 -1
278 1 13 50 74 7 -1
279 1 13 49 74 6 262
280 0 14 21 92 127 293
281 0 14 20 93 128 298
282 0 14 21 92 128 292
283 0 14 22 93 128 -1
284 0 14 22 94 127 -1
285 0 14 23 94 127 -1
286 0 14 22 95 127 -1
287 0 14 21 95 127 -1
288 0 14 21 94 128 -1
289 0 14 21 93 129 299
290 1 14 21 94 130 -1
291 1 14 22 93 129 -1
292 1 14 22 92 129 282
293 1 14 22 91 128 280
294 1 14 22 91 129 -1
295 1 14 21 90 130 -1
296 1 14 21 91 129 -1
297 1 14 21 91 128 -1
298 1 14 21 92 129 281
299 1 14 20 93 130 289
300 0 15 30 93 88 318
301 0 15 31 94 89 317
302 0 15 30 93 89 316
303 0 15 29 92 88 313
304 0 15 30 92 87 315
305 0 15 29 92 86 -1
306 0 15 29 92 87 314
307 0 15 29 93 86 -1
308 0 15 30 93 86 311
309 0 15 29 92 85 310
310 1 15 30 91 86 309
311 1 15 31 92 87 308
312 1 15 30 92 88 -1
313 1 15 29 91 87 303
314 1 15 28 92 87 306
315 1 15 29 93 88 304
316 1 15 29 94 89 302
317 1 15 30 94 89 301
318 1 15 29 93 89 300
319 1 15 28 93 89 -1
320 0 16 138 179 181 337
321 0 16 137 179 181 335
322 0 16 136 178 181 332
323 0 16 135 178 180 331
324 0 16 135 179 179 -1
325 0 16 135 179 180 -1
326 0 16 135 179 181 -1
327 0 16 134 180 180 -1
328 0 16 135 181 180 -1
329 0 16 136 180 180 330
330 1 16 136 179 179 329
331 1 16 136 179 180 323
332 1 16 137 178 181 322
333 1 16 137 179 182 -1
334 1 16 138 178 181 -1
335 1 16 138 179 180 321
336 1 16 139 179 180 -1
337 1 16 139 180 181 320
338 1 16 140 181 180 -1
339 1 16 141 180 179 -1
340 0 17 177 151 159 358
341 0 17 177 152 160 359
342 0 17 176 152 160 -1
343 0 17 175 153 161 -1
344 0 17 175 152 160 -1
345 0 17 175 151 161 357
346 0 17 175 150 162 -1
347 0 17 175 149 162 -1
348 0 17 176 148 162 354
349 0 17 176 149 161 351
350 1 17 175 149 160 -1
351 1 17 176 150 161 349
352 1 17 177 149 161 -1
353 1 17 176 150 162 -1
354 1 17 175 149 161 348
355 1 17 176 149 160 -1
356 1 17 175 150 159 -1
357 1 17 175 150 160 345
358 1 17 176 151 159 340
359 1 17 177 152 159 341
360 0 18 12 114 159 -1
361 0 18 11 115 158 -1
362 0 18 10 116 159 379
363 0 18 11 117 158 -1
364 0 18 12 118 159 377
365 0 18 13 117 158 -1
366 0 18 14 118 157 373
367 0 18 14 117 157 -1
368 0 18 15 118 158 374
369 0 18 15 119 159 372
370 1 18 16 120 160 -1
371 1 18 16 119 159 -1
372 1 18 15 120 158 369
373 1 18 15 119 157 366
374 1 18 16 118 158 368
375 1 18 15 119 158 -1
376 1 18 14 118 158 -1
377 1 18 13 118 159 364
378 1 18 12 117 160 -1
379 1 18 11 116 159 362
380 0 19 193 140 106 -1
381 0 19 193 139 106 398
382 0 19 192 139 106 397
383 0 19 191 138 107 394
384 0 19 190 138 108 395
385 0 19 190 138 107 392
386 0 19 191 138 108 391
387 0 19 192 137 108 -1
388 0 19 191 138 109 -1
389 0 19 191 137 109 -1
390 1 19 190 137 108 -1
391 1 19 190 137 107 386
392 1 19 189 137 106 385
393 1 19 190 137 106 -1
394 1 19 191 138 106 383
395 1 19 190 139 107 384
396 1 19 190 140 106 -1
397 1 19 191 140 106 382
398 1 19 192 140 105 381
399 1 19 191 140 104 -1
400 0 20 138 109 81 415
401 0 20 137 109 81 414
402 0 20 136 110 80 -1
403 0 20 136 109 80 -1
404 0 20 137 108 79 413
405 0 20 136 108 80 410
406 0 20 137 109 80 -1
407 0 20 137 108 80 411
408 0 20 136 107 79 412
409 0 20 136 108 79 -1
410 1 20 135 107 79 405
411 1 20 136 107 80 407
412 1 20 137 107 80 408
413 1 20 138 107 79 404
414 1 20 138 108 80 401
415 1 20 139 108 81 400
416 1 20 139 107 80 -1
417 1 20 138 106 81 -1
418 1 20 138 107 81 -1
419 1 20 137 108 82 -1
420 0 21 83 155 181 432
421 0 21 83 156 182 435
422 0 21 83 155 183 434
423 0 21 82 155 183 433
424 0 21 81 155 182 -1
425 0 21 82 155 181 438
426 0 21 83 154 180 439
427 0 21 84 155 179 436
428 0 21 85 154 180 430
429 0 21 86 153 181 431
430 1 21 85 153 180 428
431 1 21 85 153 181 429
432 1 21 84 154 182 420
433 1 21 83 154 183 423
434 1 21 83 154 182 422
435 1 21 84 155 181 421
436 1 21 84 155 180 427
437 1 21 83 154 181 -1
438 1 21 82 154 181 425
439 1 21 82 153 181 426
440 0 22 129 105 66 -1
441 0 22 128 106 65 -1
442 0 22 127 106 66 454
443 0 22 127 105 67 452
444 0 22 127 104 68 458
445 0 22 128 103 67 459
446 0 22 128 104 68 -1
447 0 22 129 105 69 -1
448 0 22 128 105 68 450
449 0 22 128 105 67 -1
450 1 22 129 105 68 448
451 1 22 128 105 69 -1
452 1 22 127 105 68 443
453 1 22 127 106 68 -1
454 1 22 126 105 67 442
455 1 22 125 104 66 -1
456 1 22 125 103 67 -1
457 1 22 126 104 66 -1
458 1 22 127 103 67 444
459 1 22 128 103 66 445
460 0 23 10 13 180 -1
461 0 23 9 13 181 479
462 0 23 8 12 180 478
463 0 23 8 11 180 477
464 0 23 7 12 181 -1
465 0 23 8 12 182 470
466 0 23 8 11 182 476
467 0 23 8 12 183 473
468 0 23 7 11 184 474
469 0 23 6 12 183 475
470 1 23 7 11 182 465
471 1 23 7 12 183 -1
472 1 23 6 13 182 -1
473 1 23 7 13 183 467
474 1 23 7 12 184 468
475 1 23 7 11 183 469
476 1 23 7 12 182 466
477 1 23 8 11 181 463
478 1 23 9 11 181 462
479 1 23 9 12 181 461
480 0 24 68 6 160 492
481 0 24 68 7 159 491
482 0 24 69 7 158 -1
483 0 24 68 6 157 490
484 0 24 67 7 157 498
485 0 24 67 7 156 497
486 0 24 66 6 156 499
487 0 24 67 6 157 -1
488 0 24 68 5 158 496
489 0 24 69 6 157 -1
490 1 24 69 7 157 483
491 1 24 68 6 158 481
492 1 24 67 6 159 480
493 1 24 67 5 158 -1
494 1 24 68 4 159 -1
495 1 24 68 4 158 -1
496 1 24 69 5 157 488
497 1 24 68 6 156 485
498 1 24 67 6 156 484
499 1 24 66 7 157 486
500 0 25 120 167 119 -1
501 0 25 121 168 118 514
502 0 25 121 169 118 511
503 0 25 122 170 119 -1
504 0 25 123 170 118 -1
505 0 25 123 169 117 512
506 0 25 124 168 116 510
507 0 25 123 167 117 513
508 0 25 122 168 116 -1
509 0 25 123 169 116 -1
510 1 25 123 168 116 506
511 1 25 122 169 117 502
512 1 25 123 168 118 505
513 1 25 122 167 117 507
514 1 25 121 167 118 501
515 1 25 122 166 118 -1
516 1 25 121 165 117 -1
517 1 25 122 164 117 -1
518 1 25 121 164 118 -1
519 1 25 120 165 118 -1
520 0 26 96 27 189 539
521 0 26 97 28 190 536
522 0 26 97 27 191 -1
523 0 26 97 26 191 533
524 0 26 97 25 191 535
525 0 26 97 24 191 532
526 0 26 98 25 192 -1
527 0 26 99 26 191 530
528 0 26 98 26 192 531
529 0 26 98 27 192 534
530 1 26 99 26 192 527
531 1 26 99 25 191 528
532 1 26 98 24 190 525
533 1 26 98 25 190 523
534 1 26 98 26 191 529
535 1 26 98 26 190 524
536 1 26 98 27 189 521
537 1 26 97 26 189 -1
538 1 26 98 27 190 -1
539 1 26 97 27 189 520
540 0 27 179 29 41 559
541 0 27 178 28 42 557
542 0 27 179 28 43 558
543 0 27 180 29 42 -1
544 0 27 180 28 43 -1
545 0 27 181 27 42 551
546 0 27 182 26 42 552
547 0 27 183 25 42 553
548 0 27 184 26 43 -1
549 0 27 183 25 43 -1
550 1 27 182 25 42 -1
551 1 27 182 26 43 545
552 1 27 183 27 42 546
553 1 27 183 26 42 547
554 1 27 182 25 41 -1
555 1 27 181 26 42 -1
556 1 27 180 27 41 -1
557 1 27 179 28 42 541
558 1 27 180 28 42 542
559 1 27 179 28 41 540
560 0 28 113 138 103 -1
561 0 28 114 138 104 -1
562 0 28 115 137 105 -1
563 0 28 115 138 105 577
564 0 28 114 138 106 -1
565 0 28 115 139 105 573
566 0 28 115 139 104 571
567 0 28 114 140 104 572
568 0 28 114 141 103 -1
569 0 28 115 141 104 570
570 1 28 115 141 105 569
571 1 28 115 140 105 566
572 1 28 114 141 104 567
573 1 28 115 140 104 565
574 1 28 116 141 105 -1
575 1 28 117 140 106 -1
576 1 28 116 139 105 -1
577 1 28 116 139 104 563
578 1 28 116 140 103 -1
579 1 28 116 140 104 -1
580 0 29 36 48 92 -1
581 0 29 35 49 91 -1
582 0 29 35 50 92 -1
583 0 29 36 51 92 595
584 0 29 37 52 93 596
585 0 29 36 51 93 590
586 0 29 37 51 94 591
587 0 29 36 52 93 -1
588 0 29 35 51 94 598
589 0 29 35 52 94 599
590 1 29 35 52 93 585
591 1 29 36 52 94 586
592 1 29 37 53 95 -1
593 1 29 36 53 95 -1
594 1 29 37 52 94 -1
595 1 29 37 51 93 583
596 1 29 36 51 94 584
597 1 29 36 50 95 -1
598 1 29 35 50 94 588
599 1 29 35 51 93 589
600 0 30 112 93 169 -1
601 0 30 112 94 170 610
602 0 30 111 94 169 614
603 0 30 110 93 169 613
604 0 30 111 93 170 616
605 0 30 111 92 170 615
606 0 30 112 91 171 -1
607 0 30 113 91 172 -1
608 0 30 112 92 172 -1
609 0 30 112 92 171 612
610 1 30 113 93 171 601
611 1 30 112 94 171 -1
612 1 30 111 93 171 609
613 1 30 111 94 170 603
614 1 30 110 94 169 602
615 1 30 110 93 170 605
616 1 30 111 92 169 604
617 1 30 112 91 168 -1
618 1 30 112 91 169 -1
619 1 30 113 91 169 -1
620 0 31 132 111 83 -1
621 0 31 131 112 84 -1
622 0 31 131 111 85 633
623 0 31 131 111 86 636
624 0 31 131 111 87 -1
625 0 31 131 111 88 637
626 0 31 132 112 88 639
627 0 31 131 113 87 632
628 0 31 132 114 88 638
629 0 31 132 114 87 630
630 1 31 132 113 87 629
631 1 31 131 113 86 -1
632 1 31 130 112 87 627
633 1 31 131 112 86 622
634 1 31 132 112 85 -1
635 1 31 132 112 86 -1
636 1 31 131 112 87 623
637 1 31 131 112 88 625
638 1 31 131 113 89 628
639 1 31 131 112 89 626
640 0 32 196 118 95 -1
641 0 32 195 118 96 655
642 0 32 194 119 96 -1
643 0 32 194 120 95 651
644 0 32 194 119 94 657
645 0 32 195 120 94 652
646 0 32 194 121 95 654
647 0 32 194 122 95 653
648 0 32 194 123 94 -1
649 0 32 193 122 93 650
650 1 32 194 122 94 649
651 1 32 195 121 94 643
652 1 32 195 120 95 645
653 1 32 195 121 95 647
654 1 32 194 120 94 646
655 1 32 194 119 95 641
656 1 32 193 118 96 -1
657 1 32 193 119 95 644
658 1 32 193 120 95 -1
659 1 32 192 121 96 -1
660 0 33 166 97 107 -1
661 0 33 167 97 108 -1
662 0 33 167 96 107 -1
663 0 33 166 95 108 673
664 0 33 165 95 109 674
665 0 33 164 96 108 675
666 0 33 164 97 107 677
667 0 33 163 96 108 672
668 0 33 164 97 108 676
669 0 33 163 96 107 670
670 1 33 163 95 108 669
671 1 33 164 95 109 -1
672 1 33 164 95 108 667
673 1 33 165 95 108 663
674 1 33 164 96 109 664
675 1 33 164 97 109 665
676 1 33 164 98 108 668
677 1 33 163 98 108 666
678 1 33 163 99 109 -1
679 1 33 163 100 110 -1
680 0 34 142 51 167 -1
681 0 34 143 50 167 -1
682 0 34 142 51 168 -1
683 0 34 142 52 168 -1
684 0 34 142 53 167 695
685 0 34 143 53 167 694
686 0 34 142 53 166 693
687 0 34 142 52 165 692
688 0 34 143 53 164 691
689 0 34 143 53 165 690
690 1 34 142 54 165 689
691 1 34 142 53 164 688
692 1 34 142 53 165 687
693 1 34 143 54 166 686
694 1 34 143 53 166 685
695 1 34 143 54 167 684
696 1 34 144 54 166 -1
697 1 34 144 53 167 -1
698 1 34 145 54 166 -1
699 1 34 144 54 165 -1
700 0 35 87 129 128 -1
701 0 35 87 128 127 -1
702 0 35 87 128 126 -1
703 0 35 88 129 127 718
704 0 35 89 129 127 719
705 0 35 90 128 128 712
706 0 35 90 127 128 714
707 0 35 89 126 129 715
708 0 35 90 126 130 710
709 0 35 90 126 131 -1
710 1 35 91 127 131 708
711 1 35 90 128 130 -1
712 1 35 90 128 129 705
713 1 35 89 127 128 -1
714 1 35 89 127 129 706
715 1 35 88 126 128 707
716 1 35 89 126 128 -1
717 1 35 90 127 127 -1
718 1 35 89 128 126 703
719 1 35 88 129 126 704
720 0 36 6 35 91 -1
721 0 36 6 35 90 8293
722 0 36 5 34 90 734
723 0 36 4 35 90 -1
724 0 36 4 35 91 8298
725 0 36 3 34 92 8297
726 0 36 4 33 92 732
727 0 36 5 32 92 738
728 0 36 4 33 93 730
729 0 36 5 33 93 731
730 1 36 5 32 94 728
731 1 36 4 32 93 729
732 1 36 5 33 92 726
733 1 36 5 32 91 -1
734 1 36 4 33 90 722
735 1 36 4 32 89 -1
736 1 36 5 31 90 8287
737 1 36 4 30 91 8285
738 1 36 4 31 91 727
739 1 36 5 30 92 8284
740 0 37 111 83 161 753
741 0 37 111 82 162 751
742 0 37 110 81 161 -1
743 0 37 111 82 160 -1
744 0 37 112 82 160 756
745 0 37 112 82 159 754
746 0 37 113 81 160 750
747 0 37 113 81 159 757
748 0 37 114 82 160 -1
749 0 37 114 82 161 -1
750 1 37 113 81 161 746
751 1 37 112 82 161 741
752 1 37 112 83 161 -1
753 1 37 111 83 160 740
754 1 37 112 83 159 745
755 1 37 111 82 159 -1
756 1 37 112 81 159 744
757 1 37 113 81 158 747
758 1 37 114 82 159 -1
759 1 37 115 81 158 -1
760 0 38 58 184 57 770
761 0 38 58 183 56 777
762 0 38 58 182 55 778
763 0 38 57 181 55 774
764 0 38 56 180 56 -1
765 0 38 57 181 57 -1
766 0 38 58 182 58 -1
767 0 38 58 182 57 776
768 0 38 59 181 57 775
769 0 38 59 182 56 -1
770 1 38 58 183 57 760
771 1 38 57 182 57 -1
772 1 38 56 182 57 -1
773 1 38 57 181 56 -1
774 1 38 58 180 56 763
775 1 38 59 181 56 768
776 1 38 58 181 56 767
777 1 38 57 182 55 761
778 1 38 57 181 54 762
779 1 38 58 180 54 -1
780 0 39 148 199 78 -1
781 0 39 148 0 78 793
782 0 39 148 1 77 797
783 0 39 147 1 76 798
784 0 39 147 0 77 796
785 0 39 147 0 78 -1
786 0 39 146 1 79 -1
787 0 39 145 0 79 792
788 0 39 145 0 78 794
789 0 39 145 0 77 791
790 1 39 144 0 78 -1
791 1 39 145 199 77 789
792 1 39 146 199 78 787
793 1 39 147 199 77 781
794 1 39 146 199 77 788
795 1 39 146 0 76 -1
796 1 39 147 1 77 784
797 1 39 148 2 78 782
798 1 39 148 2 77 783
799 1 39 147 3 76 -1
800 0 40 83 177 45 813
801 0 40 83 177 44 815
802 0 40 82 176 45 817
803 0 40 82 176 46 818
804 0 40 81 177 45 -1
805 0 40 80 178 44 812
806 0 40 81 177 43 -1
807 0 40 82 177 44 816
808 0 40 82 178 45 811
809 0 40 82 179 44 810
810 1 40 81 180 45 809
811 1 40 82 179 45 808
812 1 40 81 179 44 805
813 1 40 82 178 44 800
814 1 40 82 177 43 -1
815 1 40 82 176 44 801
816 1 40 82 177 45 807
817 1 40 81 176 46 802
818 1 40 82 175 45 803
819 1 40 83 175 44 -1
820 0 41 73 179 182 -1
821 0 41 73 178 183 -1
822 0 41 72 178 183 839
823 0 41 72 179 182 837
824 0 41 71 179 181 832
825 0 41 71 180 180 835
826 0 41 71 181 181 834
827 0 41 72 182 181 831
828 0 41 71 181 182 836
829 0 41 72 181 183 830
830 1 41 71 182 182 829
831 1 41 72 181 181 827
832 1 41 72 180 180 824
833 1 41 73 181 181 -1
834 1 41 72 180 181 826
835 1 41 71 180 181 825
836 1 41 71 180 182 828
837 1 41 72 179 183 823
838 1 41 72 180 184 -1
839 1 41 71 179 183 822
840 0 42 77 199 174 -1
841 0 42 77 0 175 -1
842 0 42 77 1 175 854
843 0 42 76 0 174 -1
844 0 42 76 199 174 -1
845 0 42 76 199 175 -1
846 0 42 77 198 174 -1
847 0 42 77 197 175 -1
848 0 42 78 198 175 851
849 0 42 78 199 175 850
850 1 42 79 198 174 849
851 1 42 78 199 174 848
852 1 42 79 0 173 -1
853 1 42 79 1 174 -1
854 1 42 78 2 175 842
855 1 42 77 3 176 -1
856 1 42 78 4 177 -1
857 1 42 78 3 177 -1
858 1 42 77 2 177 -1
859 1 42 77 1 177 -1
860 0 43 161 25 99 -1
861 0 43 160 24 99 -1
862 0 43 159 23 98 877
863 0 43 159 22 97 875
864 0 43 160 21 96 878
865 0 43 159 21 97 873
866 0 43 160 20 98 -1
867 0 43 160 21 97 876
868 0 43 160 20 96 879
869 0 43 159 21 95 872
870 1 43 158 20 94 -1
871 1 43 158 21 95 -1
872 1 43 158 22 96 869
873 1 43 158 21 97 865
874 1 43 159 20 98 -1
875 1 43 160 21 98 863
876 1 43 160 22 98 867
877 1 43 160 23 97 862
878 1 43 161 22 96 864
879 1 43 161 21 96 868
880 0 44 131 17 82 -1
881 0 44 130 16 82 890
882 0 44 129 15 82 898
883 0 44 130 15 83 896
884 0 44 131 14 84 892
885 0 44 131 14 83 893
886 0 44 131 13 82 -1
887 0 44 130 14 82 897
888 0 44 130 14 81 899
889 0 44 130 15 82 895
890 1 44 131 15 82 881
891 1 44 131 16 82 -1
892 1 44 132 15 83 884
893 1 44 132 14 84 885
894 1 44 131 15 84 -1
895 1 44 130 14 83 889
896 1 44 130 14 84 883
897 1 44 129 15 83 887
898 1 44 129 14 82 882
899 1 44 130 15 81 888
900 0 45 83 99 150 912
901 0 45 84 98 151 915
902 0 45 84 98 150 914
903 0 45 83 98 151 913
904 0 45 82 99 152 911
905 0 45 83 100 153 -1
906 0 45 84 100 153 917
907 0 45 84 100 152 910
908 0 45 83 99 153 -1
909 0 45 84 99 154 -1
910 1 45 84 99 153 907
911 1 45 83 98 152 904
912 1 45 84 99 151 900
913 1 45 83 98 150 903
914 1 45 84 97 151 902
915 1 45 85 97 152 901
916 1 45 86 98 152 -1
917 1 45 85 99 152 906
918 1 45 86 100 152 -1
919 1 45 87 101 151 -1
920 0 46 149 19 139 937
921 0 46 148 19 138 932
922 0 46 149 19 137 -1
923 0 46 148 20 138 -1
924 0 46 149 20 137 931
925 0 46 149 21 136 -1
926 0 46 149 20 135 -1
927 0 46 148 19 135 -1
928 0 46 147 19 135 -1
929 0 46 147 19 136 930
930 1 46 147 19 137 929
931 1 46 148 19 136 924
932 1 46 148 18 137 921
933 1 46 147 18 138 -1
934 1 46 146 19 139 -1
935 1 46 147 19 139 -1
936 1 46 148 19 139 -1
937 1 46 149 20 140 920
938 1 46 150 20 140 -1
939 1 46 150 19 139 -1
940 0 47 126 143 113 -1
941 0 47 125 143 114 -1
942 0 47 126 144 115 -1
943 0 47 127 143 115 952
944 0 47 128 142 116 -1
945 0 47 127 143 117 951
946 0 47 127 144 118 954
947 0 47 126 144 117 959
948 0 47 126 145 117 955
949 0 47 126 145 118 957
950 1 47 127 144 117 -1
951 1 47 128 143 116 945
952 1 47 127 144 116 943
953 1 47 128 144 117 -1
954 1 47 127 143 118 946
955 1 47 126 144 118 948
956 1 47 125 145 119 -1
957 1 47 125 146 118 949
958 1 47 125 145 118 -1
959 1 47 125 144 117 947
960 0 48 147 49 116 -1
961 0 48 148 49 115 972
962 0 48 149 49 114 -1
963 0 48 149 49 113 -1
964 0 48 148 49 113 973
965 0 48 148 50 113 -1
966 0 48 147 49 113 977
967 0 48 147 50 113 -1
968 0 48 147 50 114 970
969 0 48 146 50 115 971
970 1 48 146 51 114 968
971 1 48 147 51 115 969
972 1 48 148 50 114 961
973 1 48 148 49 114 964
974 1 48 147 48 113 -1
975 1 48 146 48 113 -1
976 1 48 146 49 113 -1
977 1 48 146 50 112 966
978 1 48 147 51 112 -1
979 1 48 146 51 111 -1
980 0 49 158 53 37 -1
981 0 49 159 53 36 -1
982 0 49 159 52 35 996
983 0 49 158 51 34 993
984 0 49 157 51 35 -1
985 0 49 156 51 35 990
986 0 49 155 50 35 -1
987 0 49 156 50 35 -1
988 0 49 155 50 34 -1
989 0 49 156 51 34 992
990 1 49 156 50 34 985
991 1 49 157 49 33 -1
992 1 49 156 50 33 989
993 1 49 157 51 34 983
994 1 49 157 52 33 -1
995 1 49 158 52 34 -1
996 1 49 159 51 35 982
997 1 49 158 50 36 -1
998 1 49 158 50 37 -1
999 1 49 157 49 36 -1
1000 0 50 42 140 159 -1
1001 0 50 43 140 158 1019
1002 0 50 44 140 158 1018
1003 0 50 45 141 159 1017
1004 0 50 44 142 160 1014
1005 0 50 45 141 161 1012
1006 0 50 44 140 162 1015
1007 0 50 45 141 163 1010
1008 0 50 46 142 163 1011
1009 0 50 46 141 164 -1
1010 1 50 46 141 163 1007
1011 1 50 45 141 162 1008
1012 1 50 44 140 161 1005
1013 1 50 44 141 161 -1
1014 1 50 44 141 160 1004
1015 1 50 45 140 161 1006
1016 1 50 45 141 160 -1
1017 1 50 46 140 159 1003
1018 1 50 45 140 158 1002
1019 1 50 44 139 158 1001
1020 0 51 198 45 112 -1
1021 0 51 199 45 113 1031
1022 0 51 198 44 113 1033
1023 0 51 197 44 112 -1
1024 0 51 198 45 113 1034
1025 0 51 198 46 113 1030
1026 0 51 197 46 112 -1
1027 0 51 197 46 113 -1
1028 0 51 198 47 114 -1
1029 0 51 199 46 113 1032
1030 1 51 199 46 114 1025
1031 1 51 199 45 114 1021
1032 1 51 0 45 114 1029
1033 1 51 199 44 113 1022
1034 1 51 199 44 112 1024
1035 1 51 0 43 113 -1
1036 1 51 1 42 114 -1
1037 1 51 2 42 114 -1
1038 1 51 3 41 115 -1
1039 1 51 2 42 115 -1
1040 0 52 172 50 125 -1
1041 0 52 173 49 124 1057
1042 0 52 174 48 124 -1
1043 0 52 174 48 125 -1
1044 0 52 175 48 126 1050
1045 0 52 176 48 125 1052
1046 0 52 175 49 126 1056
1047 0 52 175 50 125 1053
1048 0 52 176 49 126 -1
1049 0 52 175 49 127 -1
1050 1 52 176 48 126 1044
1051 1 52 177 49 125 -1
1052 1 52 176 49 125 1045
1053 1 52 175 50 124 1047
1054 1 52 175 49 124 -1
1055 1 52 175 48 125 -1
1056 1 52 174 49 126 1046
1057 1 52 174 50 125 1041
1058 1 52 175 51 124 -1
1059 1 52 174 52 125 -1
1060 0 53 196 185 33 -1
1061 0 53 195 184 33 -1
1062 0 53 195 183 34 -1
1063 0 53 195 182 33 1079
1064 0 53 196 181 33 1078
1065 0 53 196 181 34 1077
1066 0 53 195 181 35 1074
1067 0 53 194 180 34 1075
1068 0 53 193 181 35 1076
1069 0 53 192 181 35 1071
1070 1 53 192 181 36 -1
1071 1 53 191 182 35 1069
1072 1 53 192 182 35 -1
1073 1 53 193 182 35 -1
1074 1 53 194 181 34 1066
1075 1 53 193 181 34 1067
1076 1 53 194 181 35 1068
1077 1 53 195 182 34 1065
1078 1 53 195 181 33 1064
1079 1 53 195 181 32 1063
1080 0 54 7 165 27 -1
1081 0 54 6 164 26 1093
1082 0 54 5 163 25 1097
1083 0 54 5 162 25 -1
1084 0 54 6 161 25 1095
1085 0 54 7 161 24 1099
1086 0 54 6 162 25 1092
1087 0 54 7 162 24 1091
1088 0 54 8 162 23 1090
1089 0 54 9 161 23 -1
1090 1 54 8 161 24 1088
1091 1 54 7 162 25 1087
1092 1 54 6 162 24 1086
1093 1 54 7 163 25 1081
1094 1 54 8 163 25 -1
1095 1 54 7 162 26 1084
1096 1 54 6 163 26 -1
1097 1 54 6 162 26 1082
1098 1 54 7 161 26 -1
1099 1 54 6 160 25 1085
1100 0 55 9 106 19 1116
1101 0 55 10 107 20 1117
1102 0 55 11 108 20 1119
1103 0 55 11 107 21 -1
1104 0 55 10 106 20 1118
1105 0 55 9 106 20 1111
1106 0 55 8 105 19 -1
1107 0 55 9 105 20 -1
1108 0 55 10 105 19 1110
1109 0 55 9 105 18 1114
1110 1 55 10 104 19 1108
1111 1 55 10 105 20 1105
1112 1 55 11 105 19 -1
1113 1 55 11 105 20 -1
1114 1 55 10 106 19 1109
1115 1 55 9 106 18 -1
1116 1 55 8 107 19 1100
1117 1 55 9 108 20 1101
1118 1 55 9 107 20 1104
1119 1 55 10 107 21 1102
1120 0 56 53 54 14 1137
1121 0 56 54 55 15 1134
1122 0 56 54 56 14 -1
1123 0 56 55 56 14 -1
1124 0 56 56 56 15 1130
1125 0 56 57 56 16 -1
1126 0 56 57 55 16 1131
1127 0 56 56 55 15 1132
1128 0 56 57 55 15 -1
1129 0 56 58 56 15 -1
1130 1 56 57 55 14 1124
1131 1 56 57 54 15 1126
1132 1 56 56 55 14 1127
1133 1 56 55 55 13 -1
1134 1 56 55 55 14 1121
1135 1 56 54 54 15 -1
1136 1 56 53 53 14 -1
1137 1 56 52 54 14 1120
1138 1 56 51 53 13 -1
1139 1 56 51 52 13 -1
1140 0 57 164 157 83 1156
1141 0 57 165 158 84 -1
1142 0 57 165 157 85 1153
1143 0 57 164 157 84 -1
1144 0 57 163 157 83 1157
1145 0 57 163 157 82 1158
1146 0 57 162 158 83 1159
1147 0 57 163 159 84 1154
1148 0 57 162 160 84 -1
1149 0 57 163 160 85 -1
1150 1 57 164 159 86 -1
1151 1 57 165 159 85 -1
1152 1 57 164 158 86 -1
1153 1 57 164 157 85 1142
1154 1 57 164 158 84 1147
1155 1 57 163 158 85 -1
1156 1 57 163 157 84 1140
1157 1 57 162 158 84 1144
1158 1 57 163 158 83 1145
1159 1 57 162 159 82 1146
1160 0 58 18 110 145 1173
1161 0 58 19 111 146 1175
1162 0 58 19 111 147 1171
1163 0 58 19 112 148 1176
1164 0 58 20 112 148 -1
1165 0 58 21 111 147 1172
1166 0 58 21 110 148 1178
1167 0 58 21 111 148 1177
1168 0 58 21 111 149 -1
1169 0 58 22 112 149 -1
1170 1 58 21 113 148 -1
1171 1 58 20 112 147 1162
1172 1 58 20 111 146 1165
1173 1 58 19 111 145 1160
1174 1 58 20 110 145 -1
1175 1 58 20 110 146 1161
1176 1 58 20 111 147 1163
1177 1 58 21 110 147 1167
1178 1 58 20 109 147 1166
1179 1 58 21 108 146 -1
1180 0 59 163 70 69 1195
1181 0 59 163 69 68 1193
1182 0 59 163 69 69 1194
1183 0 59 164 70 68 1191
1184 0 59 163 69 67 -1
1185 0 59 164 68 68 -1
1186 0 59 164 68 69 -1
1187 0 59 165 69 68 1196
1188 0 59 166 68 69 1190
1189 0 59 167 68 68 -1
1190 1 59 166 69 68 1188
1191 1 59 165 70 69 1183
1192 1 59 165 70 70 -1
1193 1 59 164 69 69 1181
1194 1 59 163 70 70 1182
1195 1 59 164 69 70 1180
1196 1 59 165 68 69 1187
1197 1 59 166 69 70 -1
1198 1 59 167 68 71 -1
1199 1 59 166 69 72 -1
1200 0 60 147 22 49 -1
1201 0 60 146 23 48 -1
1202 0 60 145 23 49 -1
1203 0 60 145 23 48 -1
1204 0 60 144 24 48 1218
1205 0 60 143 24 49 1219
1206 0 60 144 25 49 -1
1207 0 60 144 26 50 -1
1208 0 60 145 26 49 1210
1209 0 60 146 25 50 1211
1210 1 60 146 25 49 1208
1211 1 60 147 24 50 1209
1212 1 60 146 24 51 -1
1213 1 60 147 24 51 -1
1214 1 60 146 25 51 -1
1215 1 60 147 26 52 -1
1216 1 60 147 25 51 -1
1217 1 60 146 26 50 -1
1218 1 60 145 25 49 1204
1219 1 60 144 25 48 1205
1220 0 61 179 83 162 1239
1221 0 61 178 84 161 1234
1222 0 61 179 83 161 -1
1223 0 61 179 84 162 1237
1224 0 61 178 84 162 1238
1225 0 61 177 84 161 1236
1226 0 61 176 83 161 -1
1227 0 61 176 84 160 1232
1228 0 61 176 85 160 1235
1229 0 61 177 85 161 1233
1230 1 61 176 85 162 -1
1231 1 61 176 84 162 -1
1232 1 61 175 85 161 1227
1233 1 61 176 86 162 1229
1234 1 61 177 85 162 1221
1235 1 61 176 85 161 1228
1236 1 61 177 84 162 1225
1237 1 61 178 85 162 1223
1238 1 61 179 84 163 1224
1239 1 61 178 83 162 1220
1240 0 62 11 198 17 -1
1241 0 62 10 197 18 -1
1242 0 62 10 197 17 1254
1243 0 62 9 196 16 1255
1244 0 62 10 195 17 1257
1245 0 62 10 194 18 1253
1246 0 62 11 194 17 1251
1247 0 62 10 193 18 1252
1248 0 62 11 192 18 1250
1249 0 62 12 193 18 -1
1250 1 62 11 192 17 1248
1251 1 62 10 193 17 1246
1252 1 62 11 194 18 1247
1253 1 62 11 195 17 1245
1254 1 62 11 196 17 1242
1255 1 62 10 196 17 1243
1256 1 62 11 195 16 -1
1257 1 62 10 196 16 1244
1258 1 62 9 196 15 -1
1259 1 62 9 195 14 -1
1260 0 63 144 99 116 -1
1261 0 63 143 98 117 1279
1262 0 63 142 97 116 1278
1263 0 63 142 98 116 -1
1264 0 63 141 98 117 1270
1265 0 63 140 97 116 -1
1266 0 63 139 97 116 -1
1267 0 63 140 96 117 1275
1268 0 63 140 96 116 -1
1269 0 63 141 96 117 1276
1270 1 63 141 97 118 1264
1271 1 63 140 96 119 -1
1272 1 63 141 96 118 -1
1273 1 63 141 95 119 -1
1274 1 63 141 94 118 -1
1275 1 63 141 95 117 1267
1276 1 63 141 95 116 1269
1277 1 63 142 95 117 -1
1278 1 63 142 96 117 1262
1279 1 63 143 97 117 1261
1280 0 64 118 196 118 1295
1281 0 64 118 195 119 1296
1282 0 64 119 195 119 1297
1283 0 64 120 195 118 -1
1284 0 64 119 194 117 1290
1285 0 64 120 193 118 -1
1286 0 64 119 193 117 -1
1287 0 64 120 193 116 1291