ITEM: TIMESTEP
0
ITEM: NUMBER OF ATOMS
11000
ITEM: BOX BOUNDS pp pp pp
0 200
0 200
0 200
ITEM: ATOMS id type mol x y z bP
0 2 0 95 70 132 -1
1 0 0 97 72 134 8849
2 0 0 96 72 134 -1
3 0 0 96 73 135 8853
4 0 0 97 71 134 8845
5 0 0 98 71 135 8846
6 0 0 97 74 134 8852
7 0 0 97 73 133 8851
8 0 0 96 74 133 8854
9 0 0 98 73 135 8847
10 0 0 97 74 136 8850
11 2 1 177 32 119 -1
12 0 1 179 33 123 10525
13 0 1 178 34 123 10518
14 0 1 177 33 122 -1
15 0 1 180 32 123 10526
16 0 1 181 33 124 10522
17 0 1 178 33 123 -1
18 0 1 178 32 122 10520
19 0 1 177 32 123 10517
20 0 1 179 34 122 10521
21 0 1 179 34 123 -1
22 2 2 116 107 101 -1
23 0 2 117 103 103 -1
24 0 2 116 103 102 8860
25 0 2 115 102 102 6672
26 0 2 116 102 104 -1
27 0 2 116 101 103 8857
28 0 2 113 103 101 -1
29 0 2 113 102 102 9560
30 0 2 112 102 102 10907
31 0 2 112 102 101 9561
32 0 2 112 103 102 7074
33 2 3 146 120 38 -1
34 0 3 143 121 40 10470
35 0 3 142 121 39 10471
36 0 3 141 120 39 -1
37 0 3 142 122 41 10462
38 0 3 143 121 41 10466
39 0 3 142 121 40 -1
40 0 3 143 122 41 10468
41 0 3 143 122 42 10465
42 0 3 141 121 41 10467
43 0 3 142 122 42 -1
44 2 4 109 103 112 -1
45 0 4 108 99 112 8918
46 0 4 108 99 111 6527
47 0 4 107 99 110 -1
48 0 4 107 98 111 10898
49 0 4 108 97 112 5980
50 0 4 111 100 111 8917
51 0 4 110 101 112 -1
52 0 4 109 100 111 8920
53 0 4 110 100 111 8916
54 0 4 111 99 110 5982
55 2 5 176 69 69 -1
56 0 5 174 71 67 7393
57 0 5 173 71 67 7394
58 0 5 174 72 66 -1
59 0 5 173 72 66 7396
60 0 5 173 73 65 7397
61 0 5 176 69 67 7398
62 0 5 176 69 66 7402
63 0 5 177 68 67 7401
64 0 5 175 68 67 7399
65 0 5 175 67 66 7400
66 2 6 14 6 110 -1
67 0 6 17 8 111 5509
68 0 6 16 9 110 5506
69 0 6 17 10 111 5510
70 0 6 17 7 112 5508
71 0 6 17 7 113 5507
72 0 6 12 3 108 -1
73 0 6 12 4 108 5505
74 0 6 11 4 109 -1
75 0 6 11 2 107 5503
76 0 6 12 3 107 5501
77 2 7 84 26 193 -1
78 0 7 87 27 191 -1
79 0 7 87 28 192 6093
80 0 7 88 28 191 6091
81 0 7 86 26 190 6090
82 0 7 87 27 190 6089
83 0 7 87 25 193 6084
84 0 7 88 24 192 6087
85 0 7 88 23 193 6086
86 0 7 88 25 192 6257
87 0 7 88 24 191 6255
88 2 8 144 10 77 -1
89 0 8 145 9 82 6080
90 0 8 146 9 81 9466
91 0 8 146 10 81 9468
92 0 8 146 10 83 9467
93 0 8 146 11 82 6079
94 0 8 146 13 80 6073
95 0 8 146 12 80 -1
96 0 8 147 11 81 6077
97 0 8 147 14 81 6074
98 0 8 148 13 82 6076
99 2 9 127 36 11 -1
100 0 9 129 38 15 7670
101 0 9 128 38 14 7669
102 0 9 129 39 14 7668
103 0 9 130 39 15 7672
104 0 9 129 38 14 7675
105 0 9 130 37 14 7676
106 0 9 131 38 14 7674
107 0 9 130 38 15 7671
108 0 9 130 36 14 -1
109 0 9 131 36 13 7677
110 2 10 169 17 86 -1
111 0 10 167 21 87 7641
112 0 10 166 21 87 7640
113 0 10 166 20 87 7636
114 0 10 168 20 87 -1
115 0 10 169 20 86 -1
116 0 10 165 19 88 7635
117 0 10 166 18 87 10584
118 0 10 167 19 87 7639
119 0 10 165 18 89 10583
120 0 10 165 17 88 10585
121 2 11 101 128 128 -1
122 0 11 104 128 129 10314
123 0 11 105 128 128 -1
124 0 11 105 127 128 10313
125 0 11 104 127 130 10315
126 0 11 105 126 131 10317
127 0 11 105 129 127 10312
128 0 11 105 128 126 10309
129 0 11 106 127 126 10310
130 0 11 106 128 128 10308
131 0 11 105 128 127 10311
132 2 12 19 159 144 -1
133 0 12 16 157 146 9883
134 0 12 17 158 147 9881
135 0 12 17 157 146 9882
136 0 12 15 157 146 9879
137 0 12 16 157 145 9880
138 0 12 16 160 147 9888
139 0 12 16 161 147 9886
140 0 12 15 160 147 9885
141 0 12 15 161 148 9884
142 0 12 15 162 149 9887
143 2 13 96 101 93 -1
144 0 13 95 101 91 -1
145 0 13 96 102 90 5945
146 0 13 97 101 90 -1
147 0 13 95 101 90 5944
148 0 13 95 102 89 5942
149 0 13 92 100 93 6181
150 0 13 92 99 92 6070
151 0 13 93 98 93 10950
152 0 13 91 100 94 6066
153 0 13 90 99 95 8007
154 2 14 48 6 46 -1
155 0 14 46 5 48 7225
156 0 14 47 6 49 7219
157 0 14 48 6 50 7217
158 0 14 45 4 48 -1
159 0 14 46 4 49 -1
160 0 14 50 4 49 7221
161 0 14 49 4 48 7226
162 0 14 48 5 49 7222
163 0 14 49 5 49 7220
164 0 14 48 6 48 7223
165 2 15 75 23 80 -1
166 0 15 78 20 82 8087
167 0 15 77 19 83 8093
168 0 15 76 20 82 8091
169 0 15 77 20 82 8090
170 0 15 78 21 81 -1
171 0 15 74 20 83 8092
172 0 15 75 21 83 8094
173 0 15 74 22 82 8095
174 0 15 74 20 82 -1
175 0 15 75 21 82 -1
176 2 16 90 115 112 -1
177 0 16 90 116 108 -1
178 0 16 91 117 108 6483
179 0 16 91 117 107 6480
180 0 16 90 117 107 5953
181 0 16 91 116 106 5954
182 0 16 92 114 108 5952
183 0 16 91 115 107 5955
184 0 16 90 114 108 5956
185 0 16 93 114 108 6485
186 0 16 93 114 107 6486
187 2 17 95 104 97 -1
188 0 17 96 106 101 -1
189 0 17 96 107 101 -1
190 0 17 97 108 101 7489
191 0 17 96 107 100 7484
192 0 17 95 108 99 7485
193 0 17 92 103 94 7311
194 0 17 92 104 95 -1
195 0 17 91 104 96 7314
196 0 17 92 102 95 7310
197 0 17 93 102 94 -1
198 2 18 118 133 56 -1
199 0 18 118 129 55 9618
200 0 18 118 129 54 -1
201 0 18 119 128 53 -1
202 0 18 119 128 54 9616
203 0 18 119 129 55 9619
204 0 18 116 131 55 -1
205 0 18 117 130 55 -1
206 0 18 118 130 54 -1
207 0 18 116 132 54 -1
208 0 18 115 133 54 -1
209 2 19 3 16 106 -1
210 0 19 7 19 105 10359
211 0 19 7 18 106 10357
212 0 19 8 18 107 -1
213 0 19 8 20 106 -1
214 0 19 7 20 107 10360
215 0 19 5 18 106 10356
216 0 19 4 18 107 10354
217 0 19 5 19 107 -1
218 0 19 4 19 106 10352
219 0 19 5 19 105 10358
220 2 20 70 101 60 -1
221 0 20 71 98 60 9653
222 0 20 70 99 60 9649
223 0 20 71 99 59 9656
224 0 20 71 98 59 9654
225 0 20 71 97 58 9655
226 0 20 69 99 63 9651
227 0 20 69 98 64 9652
228 0 20 69 98 65 -1
229 0 20 69 99 62 9648
230 0 20 68 98 61 9650
231 2 21 2 54 63 -1
232 0 21 2 58 64 6894
233 0 21 3 58 65 6895
234 0 21 3 58 66 6892
235 0 21 3 59 64 6893
236 0 21 2 58 63 -1
237 0 21 0 55 64 6888
238 0 21 0 56 65 6889
239 0 21 1 55 66 6890
240 0 21 1 56 64 -1
241 0 21 2 55 65 6887
242 2 22 95 111 102 -1
243 0 22 93 109 101 6232
244 0 22 92 110 100 6744
245 0 22 93 110 99 6233
246 0 22 93 110 101 6235
247 0 22 92 109 100 6937
248 0 22 92 110 99 -1
249 0 22 92 109 98 6234
250 0 22 92 110 98 6236
251 0 22 93 109 100 6748
252 0 22 94 110 100 7486
253 2 23 78 20 115 -1
254 0 23 78 18 117 5994
255 0 23 77 18 116 5991
256 0 23 78 17 115 -1
257 0 23 77 18 118 5990
258 0 23 78 18 118 5993
259 0 23 78 20 118 5988
260 0 23 77 21 117 5987
261 0 23 76 21 117 5985
262 0 23 77 20 119 -1
263 0 23 77 19 119 -1
264 2 24 181 86 90 -1
265 0 24 179 90 88 8163
266 0 24 179 90 87 8166
267 0 24 180 91 87 8167
268 0 24 179 91 88 8170
269 0 24 178 92 89 -1
270 0 24 180 89 89 8172
271 0 24 180 90 89 8164
272 0 24 180 91 89 -1
273 0 24 180 89 90 8168
274 0 24 181 90 89 8165
275 2 25 153 159 22 -1
276 0 25 153 164 23 10700
277 0 25 154 163 22 10697
278 0 25 154 162 22 10696
279 0 25 153 165 23 10699
280 0 25 154 166 23 -1
281 0 25 154 164 22 10695
282 0 25 154 163 21 10702
283 0 25 153 164 22 10698
284 0 25 155 164 21 -1
285 0 25 155 165 20 10701
286 2 26 95 69 114 -1
287 0 26 96 67 111 5614
288 0 26 95 66 112 5615
289 0 26 95 66 111 -1
290 0 26 97 66 111 5612
291 0 26 97 67 110 5616
292 0 26 98 68 112 5620
293 0 26 97 68 112 5611
294 0 26 98 69 112 5618
295 0 26 97 68 111 5617
296 0 26 97 67 112 -1
297 2 27 142 88 65 -1
298 0 27 141 90 68 7266
299 0 27 142 89 69 7265
300 0 27 143 89 70 7261
301 0 27 142 91 68 7264
302 0 27 141 92 67 7267
303 0 27 143 89 69 7270
304 0 27 142 88 69 -1
305 0 27 141 87 69 7263
306 0 27 144 89 68 7269
307 0 27 143 90 69 -1
308 2 28 110 93 91 -1
309 0 28 107 90 89 9766
310 0 28 108 90 88 9767
311 0 28 107 90 87 9156
312 0 28 106 89 88 -1
313 0 28 105 90 89 9154
314 0 28 113 97 90 -1
315 0 28 113 98 89 8440
316 0 28 113 98 88 8438
317 0 28 114 98 89 -1
318 0 28 115 98 89 -1
319 2 29 34 98 3 -1
320 0 29 34 96 2 8611
321 0 29 33 95 1 8603
322 0 29 32 95 0 8606
323 0 29 34 97 1 8604
324 0 29 34 96 0 8610
325 0 29 32 96 0 8605
326 0 29 33 96 199 -1
327 0 29 33 96 198 -1
328 0 29 31 95 0 -1
329 0 29 32 96 1 8607
330 2 30 177 22 183 -1
331 0 30 175 24 181 -1
332 0 30 174 24 182 9936
333 0 30 174 23 183 9937
334 0 30 174 24 180 9941
335 0 30 175 23 179 9940
336 0 30 174 23 182 9938
337 0 30 175 23 181 9939
338 0 30 176 22 180 9942
339 0 30 173 23 181 -1
340 0 30 173 22 180 -1
341 2 31 110 192 151 -1
342 0 31 110 194 152 10200
343 0 31 109 194 153 10198
344 0 31 110 193 154 -1
345 0 31 110 193 153 10204
346 0 31 109 194 154 10199
347 0 31 107 195 152 10201
348 0 31 108 194 151 10205
349 0 31 107 193 152 -1
350 0 31 107 196 152 10202
351 0 31 108 195 152 -1
352 2 32 132 10 70 -1
353 0 32 129 12 67 6002
354 0 32 130 13 66 5998
355 0 32 129 13 66 -1
356 0 32 130 11 67 5999
357 0 32 131 10 67 -1
358 0 32 132 14 68 -1
359 0 32 131 13 69 7120
360 0 32 130 13 68 7121
361 0 32 131 15 67 7118
362 0 32 131 14 68 7122
363 2 33 114 162 106 -1
364 0 33 110 163 103 9126
365 0 33 111 164 104 9128
366 0 33 110 164 103 9127
367 0 33 109 164 104 -1
368 0 33 109 165 104 9125
369 0 33 112 163 104 9121
370 0 33 112 163 105 9123
371 0 33 112 164 105 9122
372 0 33 111 164 103 9124
373 0 33 111 163 104 9129
374 2 34 19 36 160 -1
375 0 34 22 35 156 -1
376 0 34 22 34 157 -1
377 0 34 22 34 156 6561
378 0 34 21 34 157 6557
379 0 34 20 35 158 6566
380 0 34 21 36 158 6563
381 0 34 21 35 158 6560
382 0 34 20 36 157 6562
383 0 34 22 36 157 6565
384 0 34 22 37 158 6564
385 2 35 103 85 103 -1
386 0 35 102 89 100 6517
387 0 35 101 88 99 6516
388 0 35 101 88 98 -1
389 0 35 102 90 100 9862
390 0 35 101 91 99 5826
391 0 35 104 89 103 8289
392 0 35 105 88 104 -1
393 0 35 105 87 105 9679
394 0 35 104 89 104 9859
395 0 35 104 90 105 9769
396 2 36 104 120 103 -1
397 0 36 101 119 101 5587
398 0 36 102 119 100 -1
399 0 36 101 118 99 9488
400 0 36 101 120 100 9490
401 0 36 100 119 99 -1
402 0 36 103 117 102 -1
403 0 36 102 118 101 5582
404 0 36 102 117 100 9487
405 0 36 103 118 101 5586
406 0 36 102 119 101 -1
407 2 37 128 137 6 -1
408 0 37 129 136 4 8716
409 0 37 130 135 4 8714
410 0 37 130 136 5 8713
411 0 37 128 135 3 8717
412 0 37 128 135 2 8722
413 0 37 128 138 1 9287
414 0 37 129 139 0 -1
415 0 37 130 139 1 -1
416 0 37 128 137 0 9286
417 0 37 128 138 199 -1
418 2 38 198 157 137 -1
419 0 38 197 156 134 10979
420 0 38 198 155 135 -1
421 0 38 198 154 135 10982
422 0 38 196 155 135 10980
423 0 38 197 154 136 10981
424 0 38 3 157 137 10987
425 0 38 4 156 137 -1
426 0 38 4 156 136 -1
427 0 38 2 156 138 10988
428 0 38 1 156 138 10984
429 2 39 156 192 30 -1
430 0 39 155 192 27 8636
431 0 39 154 191 28 8639
432 0 39 153 191 29 8638
433 0 39 155 192 28 -1
434 0 39 155 193 27 8637
435 0 39 160 195 29 8643
436 0 39 159 196 29 8644
437 0 39 160 197 30 8645
438 0 39 161 195 28 8642
439 0 39 162 195 29 8641
440 2 40 165 15 52 -1
441 0 40 163 19 52 -1
442 0 40 163 18 52 7044
443 0 40 164 17 52 7042
444 0 40 162 19 51 7047
445 0 40 162 18 52 7041
446 0 40 164 20 51 7043
447 0 40 164 19 51 7048
448 0 40 165 18 51 7050
449 0 40 163 19 50 7046
450 0 40 162 20 51 -1
451 2 41 140 76 3 -1
452 0 41 142 79 3 6568
453 0 41 141 78 3 6572
454 0 41 141 78 4 6571
455 0 41 143 79 4 8114
456 0 41 144 80 3 -1
457 0 41 143 79 2 5661
458 0 41 143 79 3 6569
459 0 41 142 79 2 8117
460 0 41 142 78 1 6570
461 0 41 143 79 1 5663
462 2 42 104 87 91 -1
463 0 42 108 86 90 9056
464 0 42 107 86 89 9060
465 0 42 107 86 88 9059
466 0 42 109 86 91 9062
467 0 42 110 87 92 -1
468 0 42 106 89 95 10916
469 0 42 106 88 96 10915
470 0 42 107 89 95 7012
471 0 42 106 89 96 10914
472 0 42 107 88 97 -1
473 2 43 111 96 114 -1
474 0 43 111 97 111 9016
475 0 43 110 98 112 6528
476 0 43 109 98 111 8919
477 0 43 110 96 112 5981
478 0 43 110 96 111 9015
479 0 43 109 96 112 9014
480 0 43 110 95 111 9013
481 0 43 109 94 111 10900
482 0 43 109 97 111 -1
483 0 43 109 96 110 -1
484 2 44 95 96 87 -1
485 0 44 91 93 88 7875
486 0 44 91 94 89 7872
487 0 44 92 93 90 7873
488 0 44 92 92 88 7871
489 0 44 93 91 87 -1
490 0 44 98 93 90 7013
491 0 44 99 94 89 9549
492 0 44 100 93 89 9552
493 0 44 98 94 89 9553
494 0 44 99 94 88 9550
495 2 45 92 107 104 -1
496 0 45 93 107 100 6944
497 0 45 94 106 100 6942
498 0 45 95 105 100 6951
499 0 45 94 107 101 6943
500 0 45 94 108 101 -1
501 0 45 89 109 105 7807
502 0 45 89 110 106 -1
503 0 45 89 109 107 7806
504 0 45 90 108 106 -1
505 0 45 90 108 107 7800
506 2 46 150 14 98 -1
507 0 46 152 12 96 7991
508 0 46 152 11 95 -1
509 0 46 153 10 94 7988
510 0 46 153 12 96 7989
511 0 46 153 11 97 7987
512 0 46 154 16 96 7994
513 0 46 155 15 96 -1
514 0 46 155 14 97 -1
515 0 46 155 16 95 7996
516 0 46 156 15 95 7993
517 2 47 87 96 96 -1
518 0 47 84 98 98 9918
519 0 47 84 97 98 5696
520 0 47 83 96 97 5694
521 0 47 83 98 97 5969
522 0 47 83 97 98 -1
523 0 47 89 93 97 -1
524 0 47 88 93 96 -1
525 0 47 89 93 95 -1
526 0 47 90 92 97 -1
527 0 47 89 91 97 6504
528 2 48 192 185 3 -1
529 0 48 188 188 4 10502
530 0 48 188 188 5 -1
531 0 48 187 187 5 10499
532 0 48 188 187 5 10501
533 0 48 189 187 4 10504
534 0 48 188 185 5 10503
535 0 48 189 185 6 10495
536 0 48 189 184 6 10496
537 0 48 189 185 4 10500
538 0 48 189 186 3 10498
539 2 49 15 141 94 -1
540 0 49 13 142 95 -1
541 0 49 13 141 96 6009
542 0 49 13 140 95 6008
543 0 49 14 143 96 6007
544 0 49 15 143 96 -1
545 0 49 17 143 95 6013
546 0 49 16 143 94 6012
547 0 49 15 144 95 6014
548 0 49 17 142 96 6015
549 0 49 18 141 95 -1
550 2 50 96 89 87 -1
551 0 50 98 91 87 9554
552 0 50 98 91 88 9557
553 0 50 99 90 89 9555
554 0 50 99 91 88 -1
555 0 50 98 91 89 9556
556 0 50 96 91 91 -1
557 0 50 97 92 92 -1
558 0 50 98 93 92 9409
559 0 50 97 91 92 8582
560 0 50 97 92 91 7017
561 2 51 98 109 100 -1
562 0 51 95 111 98 7487
563 0 51 94 110 98 -1
564 0 51 93 110 98 -1
565 0 51 94 111 99 7483
566 0 51 93 112 98 5590
567 0 51 94 108 97 5596
568 0 51 94 107 96 -1
569 0 51 94 108 95 5597
570 0 51 95 108 97 6946
571 0 51 94 109 98 5595
572 2 52 109 181 31 -1
573 0 52 110 179 33 8127
574 0 52 110 178 34 8125
575 0 52 110 177 33 8128
576 0 52 111 178 34 -1
577 0 52 111 178 33 8126
578 0 52 111 185 31 -1
579 0 52 110 185 32 8120
580 0 52 111 185 32 8119
581 0 52 110 184 30 8122
582 0 52 110 183 31 8121
583 2 53 22 58 5 -1
584 0 53 25 60 6 10783
585 0 53 26 61 5 10784
586 0 53 26 62 5 10785
587 0 53 26 60 7 -1
588 0 53 25 61 7 10788
589 0 53 24 62 6 10789
590 0 53 24 63 7 -1
591 0 53 23 63 6 -1
592 0 53 25 62 5 10786
593 0 53 26 63 6 -1
594 2 54 61 97 144 -1
595 0 54 59 100 142 9738
596 0 54 59 99 141 9736
597 0 54 58 100 142 9739
598 0 54 59 101 141 -1
599 0 54 58 102 142 9737
600 0 54 59 99 146 10970
601 0 54 59 99 147 10969
602 0 54 58 100 146 -1
603 0 54 58 99 145 10971
604 0 54 58 98 146 -1
605 2 55 30 169 47 -1
606 0 55 29 173 47 9843
607 0 55 29 172 46 9844
608 0 55 29 172 47 9839
609 0 55 30 174 48 9842
610 0 55 31 174 47 9841
611 0 55 29 173 45 9836
612 0 55 28 172 45 9837
613 0 55 29 172 44 9835
614 0 55 30 173 46 9840
615 0 55 30 174 46 9838
616 2 56 105 92 115 -1
617 0 56 106 96 116 7794
618 0 56 105 97 116 7793
619 0 56 104 97 116 -1
620 0 56 105 96 117 7798
621 0 56 104 95 116 6207
622 0 56 107 94 112 5975
623 0 56 107 94 111 10899
624 0 56 106 93 111 5976
625 0 56 108 93 112 -1
626 0 56 108 94 111 5974
627 2 57 142 10 154 -1
628 0 57 142 13 158 -1
629 0 57 141 12 158 7836
630 0 57 141 11 157 7834
631 0 57 141 13 157 7833
632 0 57 142 14 157 -1
633 0 57 138 9 157 7842
634 0 57 139 10 158 7841
635 0 57 139 9 159 7838
636 0 57 137 9 158 7839
637 0 57 138 10 157 7837
638 2 58 108 114 107 -1
639 0 58 107 110 106 10966
640 0 58 107 109 106 7895
641 0 58 107 109 105 8499
642 0 58 106 111 106 7896
643 0 58 107 111 105 10963
644 0 58 107 112 111 7888
645 0 58 106 111 112 7890
646 0 58 105 112 111 7892
647 0 58 106 113 110 7889
648 0 58 107 113 109 -1
649 2 59 100 90 116 -1
650 0 59 100 86 116 -1
651 0 59 99 87 117 5524
652 0 59 98 88 117 5525
653 0 59 101 87 116 5527
654 0 59 101 88 115 5532
655 0 59 102 92 119 6206
656 0 59 102 93 120 6212
657 0 59 102 93 119 -1
658 0 59 101 92 119 6213
659 0 59 102 92 118 6208
660 2 60 92 111 103 -1
661 0 60 88 109 101 6939
662 0 60 88 108 102 -1
663 0 60 89 109 101 8530
664 0 60 88 110 101 6932
665 0 60 89 110 102 -1
666 0 60 90 109 99 6751
667 0 60 89 110 98 8531
668 0 60 88 110 97 8534
669 0 60 90 110 99 8528
670 0 60 91 109 98 6752
671 2 61 95 93 95 -1
672 0 61 98 96 92 9408
673 0 61 98 95 91 9406
674 0 61 99 94 90 7015
675 0 61 98 95 93 -1
676 0 61 98 96 94 9407
677 0 61 96 96 93 10946
678 0 61 96 95 94 10947
679 0 61 97 95 94 6151
680 0 61 96 97 93 6153
681 0 61 97 96 94 6150
682 2 62 89 103 112 -1
683 0 62 90 107 110 8403
684 0 62 89 108 109 -1
685 0 62 89 109 109 7803
686 0 62 91 107 111 8398
687 0 62 91 108 112 10748
688 0 62 94 104 111 10755
689 0 62 93 103 111 8400
690 0 62 92 104 112 -1
691 0 62 94 105 110 10754
692 0 62 95 105 111 8395
693 2 63 78 96 106 -1
694 0 63 79 95 103 7732
695 0 63 79 96 104 6637
696 0 63 80 97 105 6640
697 0 63 80 95 102 7731
698 0 63 80 96 101 7728
699 0 63 82 97 104 6635
700 0 63 82 98 103 9915
701 0 63 83 98 104 9916
702 0 63 81 97 103 6634
703 0 63 80 96 104 6641
704 2 64 179 128 143 -1
705 0 64 179 126 141 -1
706 0 64 180 127 140 6851
707 0 64 180 126 140 6852
708 0 64 179 127 141 6850
709 0 64 178 128 141 -1
710 0 64 180 129 142 6845
711 0 64 180 128 141 6849
712 0 64 180 129 140 6846
713 0 64 180 130 141 6843
714 0 64 181 129 140 6844
715 2 65 93 136 77 -1
716 0 65 95 133 76 6617
717 0 65 96 132 75 6621
718 0 65 96 133 75 6618
719 0 65 95 134 77 6619
720 0 65 96 134 76 6620
721 0 65 95 134 74 -1
722 0 65 94 135 73 -1
723 0 65 95 136 73 -1
724 0 65 95 133 74 6615
725 0 65 95 132 74 6616
726 2 66 41 1 6 -1
727 0 66 39 1 3 7299
728 0 66 38 0 3 7303
729 0 66 37 199 2 7302
730 0 66 40 1 3 7300
731 0 66 41 2 2 -1
732 0 66 39 199 6 7294
733 0 66 39 0 7 7297
734 0 66 40 1 8 -1
735 0 66 38 0 6 7296
736 0 66 38 1 7 7295
737 2 67 16 113 194 -1
738 0 67 15 116 197 9236
739 0 67 16 116 196 9238
740 0 67 15 115 196 -1
741 0 67 16 115 198 9237
742 0 67 17 115 198 9239
743 0 67 15 111 196 -1
744 0 67 16 110 196 9231
745 0 67 17 110 195 9232
746 0 67 15 111 197 9233
747 0 67 14 111 197 -1
748 2 68 34 18 68 -1
749 0 68 33 21 67 10719
750 0 68 34 22 67 10715
751 0 68 35 23 68 10716
752 0 68 33 22 66 10717
753 0 68 33 22 65 10718
754 0 68 31 19 71 10722
755 0 68 32 20 71 10721
756 0 68 32 21 71 -1
757 0 68 30 20 71 10724
758 0 68 29 20 70 10723
759 2 69 32 62 158 -1
760 0 69 34 58 158 -1
761 0 69 34 58 159 7038
762 0 69 35 58 158 7033
763 0 69 34 58 157 -1
764 0 69 35 59 156 7034
765 0 69 36 59 157 7032
766 0 69 37 58 158 7035
767 0 69 38 59 158 -1
768 0 69 35 59 158 7037
769 0 69 35 60 158 7031
770 2 70 104 102 97 -1
771 0 70 108 105 96 9511
772 0 70 108 104 96 9513
773 0 70 109 104 96 9512
774 0 70 109 106 96 9359
775 0 70 110 106 95 -1
776 0 70 107 106 97 9358
777 0 70 107 107 98 -1
778 0 70 106 107 97 -1
779 0 70 106 105 96 9514
780 0 70 107 106 96 9356
781 2 71 163 169 160 -1
782 0 71 165 171 163 10883
783 0 71 164 172 162 10884
784 0 71 163 171 161 10882
785 0 71 164 170 163 10880
786 0 71 164 169 163 10881
787 0 71 159 171 160 10885
788 0 71 160 172 161 -1
789 0 71 161 172 161 8037
790 0 71 158 170 160 10887
791 0 71 157 169 161 8034
792 2 72 168 169 183 -1
793 0 72 171 168 179 10042
794 0 72 172 167 179 10039
795 0 72 172 167 180 -1
796 0 72 170 167 180 10040
797 0 72 170 167 181 10041
798 0 72 170 170 181 10038
799 0 72 170 169 181 -1
800 0 72 169 170 181 10036
801 0 72 169 171 181 -1
802 0 72 169 171 180 10033
803 2 73 129 197 63 -1
804 0 73 130 199 64 -1
805 0 73 131 0 63 8616
806 0 73 132 0 62 8617
807 0 73 130 199 63 8621
808 0 73 131 0 62 -1
809 0 73 130 1 65 8623
810 0 73 131 0 64 8620
811 0 73 132 1 64 -1
812 0 73 131 1 65 8618
813 0 73 132 2 64 8619
814 2 74 102 97 84 -1
815 0 74 102 99 86 9413
816 0 74 102 98 86 10641
817 0 74 101 97 86 7333
818 0 74 101 98 86 10639
819 0 74 100 98 85 7332
820 0 74 101 99 85 10640
821 0 74 100 100 86 9414
822 0 74 99 99 85 -1
823 0 74 100 100 85 9415
824 0 74 100 101 84 -1
825 2 75 35 123 93 -1
826 0 75 32 125 95 6280
827 0 75 31 126 94 6278
828 0 75 30 125 94 -1
829 0 75 33 126 95 6276
830 0 75 32 125 96 6279
831 0 75 30 122 94 6273
832 0 75 30 121 93 -1
833 0 75 29 122 94 -1
834 0 75 31 122 95 6274
835 0 75 30 122 96 6271
836 2 76 34 34 188 -1
837 0 76 31 31 187 10851
838 0 76 31 30 188 10852
839 0 76 31 29 189 10855
840 0 76 32 31 186 10854
841 0 76 32 32 186 10847
842 0 76 37 33 184 7519
843 0 76 37 32 184 7515
844 0 76 37 31 185 7514
845 0 76 37 33 183 7523
846 0 76 38 33 182 7518
847 2 77 95 94 90 -1
848 0 77 92 96 87 -1
849 0 77 91 95 88 7870
850 0 77 91 95 87 -1
851 0 77 93 96 88 7869
852 0 77 92 96 88 7866
853 0 77 98 91 91 7016
854 0 77 99 90 90 7330
855 0 77 99 91 91 9558
856 0 77 99 92 91 7327
857 0 77 100 93 90 7328
858 2 78 88 92 51 -1
859 0 78 91 95 52 8556
860 0 78 91 94 53 8554
861 0 78 92 94 54 8552
862 0 78 90 94 53 8553
863 0 78 89 94 54 -1
864 0 78 91 92 50 -1
865 0 78 90 93 50 -1
866 0 78 89 93 49 -1
867 0 78 91 92 51 8557
868 0 78 92 93 50 -1
869 2 79 90 96 96 -1
870 0 79 87 97 92 6176
871 0 79 88 98 93 6063
872 0 79 87 98 93 -1
873 0 79 88 97 92 7969
874 0 79 89 98 92 -1
875 0 79 91 96 94 7965
876 0 79 92 95 93 7966
877 0 79 93 94 93 7967
878 0 79 91 96 93 6068
879 0 79 92 97 94 6067
880 2 80 195 106 8 -1
881 0 80 196 105 5 6471
882 0 80 197 106 4 6469
883 0 80 198 107 5 6470
884 0 80 195 106 4 -1
885 0 80 194 107 3 9756
886 0 80 198 106 10 6478
887 0 80 197 107 11 6474
888 0 80 196 106 12 6476
889 0 80 199 105 11 6477
890 0 80 198 105 12 -1
891 2 81 48 36 122 -1
892 0 81 46 35 122 10822
893 0 81 45 34 121 10819
894 0 81 45 34 120 10820
895 0 81 46 34 123 10818
896 0 81 47 35 124 -1
897 0 81 45 35 124 10815
898 0 81 46 35 125 10814
899 0 81 46 34 125 10817
900 0 81 44 36 123 10823
901 0 81 45 36 123 -1
902 2 82 94 101 110 -1
903 0 82 96 105 109 -1
904 0 82 97 105 110 10003
905 0 82 96 105 111 8396
906 0 82 97 106 109 10185
907 0 82 98 105 110 10184
908 0 82 97 98 110 7165
909 0 82 98 98 111 5845
910 0 82 97 98 111 7162
911 0 82 96 97 111 6992
912 0 82 96 97 110 6995
913 2 83 28 39 168 -1
914 0 83 28 41 169 -1
915 0 83 29 40 170 6971
916 0 83 29 40 171 6965
917 0 83 27 42 169 6966
918 0 83 27 42 168 -1
919 0 83 30 41 171 -1
920 0 83 30 42 171 6967
921 0 83 30 41 172 6964
922 0 83 30 40 172 6970
923 0 83 31 40 173 6969
924 2 84 48 59 124 -1
925 0 84 48 64 123 7597
926 0 84 48 65 123 9343
927 0 84 49 66 123 9340
928 0 84 47 65 123 7598
929 0 84 48 65 122 -1
930 0 84 48 62 123 9342
931 0 84 49 62 124 7594
932 0 84 50 63 125 7595
933 0 84 47 62 122 7599
934 0 84 48 63 121 -1
935 2 85 2 43 4 -1
936 0 85 0 41 1 6760
937 0 85 1 42 2 6762
938 0 85 0 43 2 6755
939 0 85 199 41 0 -1
940 0 85 198 41 0 -1
941 0 85 1 43 1 -1
942 0 85 1 44 0 -1
943 0 85 2 44 1 6763
944 0 85 0 44 0 -1
945 0 85 1 45 0 -1
946 2 86 104 107 94 -1
947 0 86 107 110 96 -1
948 0 86 108 109 95 9477
949 0 86 107 110 95 9480
950 0 86 106 109 96 5534
951 0 86 105 108 97 9602
952 0 86 107 109 93 9475
953 0 86 106 109 94 9481
954 0 86 107 108 95 -1
955 0 86 106 108 93 5537
956 0 86 107 109 94 9476
957 2 87 70 100 171 -1
958 0 87 67 102 170 10051
959 0 87 67 102 169 10049
960 0 87 66 101 170 -1
961 0 87 67 101 169 10050
962 0 87 66 100 168 10052
963 0 87 68 103 169 -1
964 0 87 69 104 170 -1
965 0 87 69 105 171 -1
966 0 87 68 104 170 -1
967 0 87 69 103 170 5783
968 2 88 10 127 90 -1
969 0 88 6 130 90 5738
970 0 88 5 129 90 5735
971 0 88 4 129 89 5739
972 0 88 5 129 89 5740
973 0 88 4 130 88 5736
974 0 88 6 127 89 5734
975 0 88 5 127 88 -1
976 0 88 4 126 87 5741
977 0 88 6 128 89 5732
978 0 88 7 127 90 5733
979 2 89 97 117 99 -1
980 0 89 99 118 103 -1
981 0 89 99 119 103 7980
982 0 89 100 119 102 10377
983 0 89 99 117 104 10374
984 0 89 98 118 105 10383
985 0 89 100 118 101 9489
986 0 89 99 117 102 7976
987 0 89 100 116 103 5585
988 0 89 101 117 102 -1
989 0 89 101 117 101 9492
990 2 90 155 13 3 -1
991 0 90 157 13 5 -1
992 0 90 158 14 5 8665
993 0 90 159 15 4 8666
994 0 90 156 14 5 8658
995 0 90 155 13 6 8662
996 0 90 159 13 4 -1
997 0 90 158 14 3 8663
998 0 90 158 15 2 8667
999 0 90 159 12 3 -1
1000 0 90 158 12 3 8660
1001 2 91 105 72 73 -1
1002 0 91 107 75 73 5519
1003 0 91 108 74 74 5518
1004 0 91 109 75 73 -1
1005 0 91 106 75 74 5521
1006 0 91 107 76 73 8747
1007 0 91 106 76 76 8754
1008 0 91 105 75 75 8752
1009 0 91 105 76 74 8753
1010 0 91 105 75 76 8755
1011 0 91 105 76 77 5516
1012 2 92 65 55 188 -1
1013 0 92 65 57 191 6597
1014 0 92 64 57 191 -1
1015 0 92 65 56 190 -1
1016 0 92 66 58 191 6592
1017 0 92 67 59 190 -1
1018 0 92 66 56 191 6595
1019 0 92 67 56 192 -1
1020 0 92 66 57 193 6598
1021 0 92 67 56 190 6591
1022 0 92 68 55 189 6590
1023 2 93 134 26 106 -1
1024 0 93 134 31 105 6305
1025 0 93 135 31 104 6307
1026 0 93 135 32 103 6312
1027 0 93 133 31 105 6310
1028 0 93 133 32 104 6311
1029 0 93 135 29 104 -1
1030 0 93 134 30 103 6313
1031 0 93 133 30 103 6306
1032 0 93 136 30 103 6304
1033 0 93 136 31 104 6308
1034 2 94 110 100 106 -1
1035 0 94 114 102 105 6734
1036 0 94 115 101 104 9564
1037 0 94 116 102 103 8859
1038 0 94 115 101 105 6735
1039 0 94 115 102 104 9563
1040 0 94 110 96 108 7288
1041 0 94 110 95 108 7289
1042 0 94 109 96 109 9010
1043 0 94 110 97 109 9017
1044 0 94 109 97 109 7291
1045 2 95 58 184 93 -1
1046 0 95 58 182 96 8671
1047 0 95 58 182 95 8672
1048 0 95 57 183 95 -1
1049 0 95 59 182 95 8678
1050 0 95 58 181 96 8669
1051 0 95 61 183 95 -1
1052 0 95 60 184 95 8676
1053 0 95 61 183 96 8677
1054 0 95 61 182 94 8675
1055 0 95 61 181 95 8674
1056 2 96 116 21 172 -1
1057 0 96 117 17 170 -1
1058 0 96 117 18 169 9708
1059 0 96 116 17 170 9704
1060 0 96 116 16 171 9706
1061 0 96 116 15 171 9703
1062 0 96 116 17 172 9709
1063 0 96 117 17 173 -1
1064 0 96 117 18 174 -1
1065 0 96 116 18 172 9710
1066 0 96 116 19 171 9711
1067 2 97 102 28 59 -1
1068 0 97 102 31 59 7604
1069 0 97 101 32 59 7606
1070 0 97 101 33 58 7605
1071 0 97 102 31 58 -1
1072 0 97 103 30 59 7602
1073 0 97 105 30 61 7608
1074 0 97 106 29 62 7607
1075 0 97 105 28 62 7609
1076 0 97 104 30 61 -1
1077 0 97 104 29 61 7610
1078 2 98 76 122 164 -1
1079 0 98 78 125 161 7353
1080 0 98 79 124 161 7352
1081 0 98 79 123 162 7354
1082 0 98 78 125 162 7355
1083 0 98 79 126 162 -1
1084 0 98 80 123 161 7351
1085 0 98 79 124 162 7356
1086 0 98 80 125 163 7357
1087 0 98 79 124 160 7349
1088 0 98 79 123 160 7350
1089 2 99 96 108 113 -1
1090 0 99 96 106 110 10182
1091 0 99 97 106 111 -1
1092 0 99 98 105 111 10181
1093 0 99 95 107 110 10756
1094 0 99 94 106 111 10750
1095 0 99 94 106 110 8397
1096 0 99 95 107 109 6803
1097 0 99 94 108 109 -1
1098 0 99 93 105 109 -1
1099 0 99 92 104 110 8401
1100 2 100 116 174 127 -1
1101 0 100 118 172 129 7956
1102 0 100 119 172 130 7954
1103 0 100 120 173 131 7957
1104 0 100 118 173 130 -1
1105 0 100 119 172 129 7958
1106 0 100 117 177 128 7961
1107 0 100 117 178 129 7963
1108 0 100 118 177 130 7962
1109 0 100 117 176 128 -1
1110 0 100 117 176 129 7959
1111 2 101 194 144 178 -1
1112 0 101 192 144 176 10484
1113 0 101 191 144 175 -1
1114 0 101 191 145 175 10488
1115 0 101 191 145 177 10486
1116 0 101 190 146 177 10487
1117 0 101 193 145 181 10490
1118 0 101 192 146 180 10493
1119 0 101 193 145 180 -1
1120 0 101 192 145 182 10492
1121 0 101 191 146 183 -1
1122 2 102 118 62 14 -1
1123 0 102 116 66 16 7468
1124 0 102 117 66 17 7465
1125 0 102 118 66 18 7467
1126 0 102 116 65 15 -1
1127 0 102 117 65 14 7466
1128 0 102 121 60 17 7459
1129 0 102 122 59 17 7460
1130 0 102 123 59 16 7461
1131 0 102 120 60 17 -1
1132 0 102 119 60 16 7462
1133 2 103 51 118 182 -1
1134 0 103 48 120 179 10666
1135 0 103 47 120 180 -1
1136 0 103 48 121 181 -1
1137 0 103 49 119 180 10668
1138 0 103 49 119 179 10665
1139 0 103 51 119 178 10662
1140 0 103 50 118 177 10663
1141 0 103 49 119 178 10667
1142 0 103 52 118 178 10664
1143 0 103 53 118 177 10661
1144 2 104 152 45 71 -1
1145 0 104 153 42 69 6783
1146 0 104 154 42 68 6784
1147 0 104 154 41 67 -1
1148 0 104 152 43 69 6782
1149 0 104 151 43 69 6779
1150 0 104 152 41 69 6778
1151 0 104 151 42 69 6781
1152 0 104 150 42 68 6780
1153 0 104 153 40 68 6786
1154 0 104 152 41 68 -1
1155 2 105 87 91 96 -1
1156 0 105 85 92 97 7724
1157 0 105 86 93 96 10635
1158 0 105 86 93 97 7726
1159 0 105 86 93 98 7727
1160 0 105 87 94 97 -1
1161 0 105 86 88 99 10833
1162 0 105 85 87 98 10828
1163 0 105 85 88 98 10825
1164 0 105 87 89 100 6505
1165 0 105 88 88 99 10830
1166 2 106 113 94 100 -1
1167 0 106 110 93 102 6342
1168 0 106 111 92 102 8425
1169 0 106 112 93 103 8421
1170 0 106 110 94 103 8940
1171 0 106 110 93 104 8357
1172 0 106 111 96 103 8423
1173 0 106 111 95 104 8939
1174 0 106 110 94 104 -1
1175 0 106 110 95 102 6344
1176 0 106 109 94 102 6343
1177 2 107 23 122 1 -1
1178 0 107 21 121 198 7129
1179 0 107 21 121 197 7133
1180 0 107 21 120 197 7132
1181 0 107 21 122 197 7130
1182 0 107 20 121 196 7131
1183 0 107 23 119 0 7134
1184 0 107 23 118 199 7137
1185 0 107 23 119 198 7135
1186 0 107 23 119 1 7138
1187 0 107 24 119 0 -1
1188 2 108 33 123 62 -1
1189 0 108 31 124 66 8816
1190 0 108 32 124 65 8814
1191 0 108 31 124 64 8815
1192 0 108 32 125 66 8812
1193 0 108 33 125 66 -1
1194 0 108 35 122 62 8818
1195 0 108 35 122 63 8817
1196 0 108 36 122 63 8820
1197 0 108 36 121 62 8819
1198 0 108 36 120 62 8821
1199 2 109 107 94 106 -1
1200 0 109 110 97 105 8995
1201 0 109 110 97 106 -1
1202 0 109 111 97 107 -1
1203 0 109 109 96 104 8994
1204 0 109 109 97 103 8941
1205 0 109 110 94 107 9011
1206 0 109 109 95 107 9012
1207 0 109 109 95 106 -1
1208 0 109 111 95 106 8355
1209 0 109 112 95 107 8358
1210 2 110 63 47 197 -1
1211 0 110 59 46 194 9634
1212 0 110 59 47 193 -1
1213 0 110 59 47 192 9633
1214 0 110 60 46 194 -1
1215 0 110 59 47 195 -1
1216 0 110 60 47 193 9626
1217 0 110 61 48 193 9627
1218 0 110 61 48 192 9630
1219 0 110 59 48 193 9635
1220 0 110 60 49 194 9628
1221 2 111 105 115 52 -1
1222 0 111 107 112 52 7585
1223 0 111 106 111 53 7586
1224 0 111 106 110 53 7588
1225 0 111 106 112 51 -1
1226 0 111 105 111 51 7587
1227 0 111 107 115 56 7581
1228 0 111 106 116 57 7580
1229 0 111 105 116 57 -1
1230 0 111 108 115 57 7582
1231 0 111 107 114 56 7583
1232 2 112 103 122 103 -1
1233 0 112 98 123 103 5798
1234 0 112 98 122 103 5799
1235 0 112 97 121 104 5801
1236 0 112 99 123 103 -1
1237 0 112 99 122 102 5800
1238 0 112 100 121 105 -1
1239 0 112 99 121 105 10382
1240 0 112 98 120 104 5802
1241 0 112 101 121 104 10381
1242 0 112 101 120 104 10380
1243 2 113 112 109 102 -1
1244 0 113 108 108 105 -1
1245 0 113 108 109 106 6531