ITEM: TIMESTEP
0
ITEM: NUMBER OF ATOMS
11000
ITEM: BOX BOUNDS pp pp pp
0 200
0 200
0 200
ITEM: ATOMS id type mol x y z bP
0 2 0 128 129 67 -1
1 0 0 125 125 68 6282
2 0 0 125 124 68 -1
3 0 0 126 123 68 6284
4 0 0 125 126 69 6286
5 0 0 126 125 70 6285
6 0 0 127 124 68 6289
7 0 0 127 124 69 6290
8 0 0 127 123 68 6283
9 0 0 128 125 68 6288
10 0 0 129 125 68 6287
11 2 1 125 122 47 -1
12 0 1 121 122 44 10520
13 0 1 120 122 43 10523
14 0 1 119 121 43 10518
15 0 1 121 122 43 10519
16 0 1 121 121 44 10526
17 0 1 120 121 46 -1
18 0 1 119 121 45 10521
19 0 1 118 122 45 10517
20 0 1 121 122 45 10522
21 0 1 120 123 45 10525
22 2 2 111 102 100 -1
23 0 2 110 101 105 8920
24 0 2 111 102 105 -1
25 0 2 111 101 104 -1
26 0 2 109 101 106 10214
27 0 2 110 102 106 10541
28 0 2 110 102 96 9509
29 0 2 111 102 95 9505
30 0 2 110 102 94 6223
31 0 2 110 101 95 8227
32 0 2 109 102 96 9512
33 2 3 165 4 140 -1
34 0 3 167 5 138 10470
35 0 3 168 4 139 10471
36 0 3 169 5 140 -1
37 0 3 168 4 138 10468
38 0 3 167 4 137 10469
39 0 3 169 2 138 -1
40 0 3 169 1 137 10463
41 0 3 170 1 137 10465
42 0 3 168 3 137 10464
43 0 3 169 3 137 10462
44 2 4 113 104 111 -1
45 0 4 111 102 110 -1
46 0 4 110 101 109 -1
47 0 4 110 102 109 6531
48 0 4 111 102 111 7270
49 0 4 110 103 110 6530
50 0 4 109 102 110 10578
51 0 4 109 102 111 10581
52 0 4 108 103 112 10580
53 0 4 109 101 110 6532
54 0 4 109 100 111 6528
55 2 5 87 2 2 -1
56 0 5 86 0 199 7396
57 0 5 87 1 198 10416
58 0 5 86 1 199 -1
59 0 5 85 1 198 10412
60 0 5 86 2 198 7393
61 0 5 88 2 197 10415
62 0 5 88 2 198 7395
63 0 5 87 1 197 7394
64 0 5 89 2 196 -1
65 0 5 88 2 195 -1
66 2 6 99 106 84 -1
67 0 6 99 101 84 5506
68 0 6 99 101 85 -1
69 0 6 98 102 86 7333
70 0 6 100 101 83 5507
71 0 6 101 101 84 5748
72 0 6 100 102 86 8136
73 0 6 101 103 86 10049
74 0 6 100 104 87 5746
75 0 6 101 101 87 -1
76 0 6 100 101 87 -1
77 2 7 118 91 171 -1
78 0 7 117 94 174 -1
79 0 7 117 93 173 -1
80 0 7 116 94 172 -1
81 0 7 117 95 175 -1
82 0 7 118 94 174 -1
83 0 7 119 96 170 -1
84 0 7 119 96 169 6696
85 0 7 120 97 170 6695
86 0 7 118 97 170 -1
87 0 7 117 97 170 6697
88 2 8 185 144 126 -1
89 0 8 188 141 127 -1
90 0 8 189 140 126 -1
91 0 8 190 141 126 9467
92 0 8 189 141 128 -1
93 0 8 188 141 129 9465
94 0 8 189 143 126 9466
95 0 8 189 144 127 9469
96 0 8 188 144 126 -1
97 0 8 188 142 125 9470
98 0 8 188 142 124 -1
99 2 9 108 51 66 -1
100 0 9 110 50 63 7674
101 0 9 111 50 62 7677
102 0 9 110 49 61 7676
103 0 9 109 50 64 7673
104 0 9 110 49 63 7675
105 0 9 112 50 68 7671
106 0 9 112 51 68 7669
107 0 9 111 52 68 7670
108 0 9 111 50 67 7668
109 0 9 112 51 66 7672
110 2 10 165 129 143 -1
111 0 10 166 131 144 7638
112 0 10 167 131 144 7639
113 0 10 168 132 145 7637
114 0 10 166 131 143 7635
115 0 10 166 131 142 -1
116 0 10 168 132 142 7643
117 0 10 169 131 142 7644
118 0 10 168 131 142 -1
119 0 10 167 132 143 7636
120 0 10 168 132 143 7641
121 2 11 13 57 197 -1
122 0 11 10 56 199 10311
123 0 11 9 55 198 10309
124 0 11 10 55 197 10315
125 0 11 11 57 0 -1
126 0 11 11 56 0 10312
127 0 11 9 57 196 -1
128 0 11 10 56 195 10316
129 0 11 10 56 194 10313
130 0 11 10 57 197 10317
131 0 11 9 56 197 10314
132 2 12 193 98 71 -1
133 0 12 193 94 74 9887
134 0 12 192 93 73 9888
135 0 12 192 92 73 -1
136 0 12 193 95 75 9885
137 0 12 192 95 74 9884
138 0 12 197 97 73 9879
139 0 12 196 96 73 9883
140 0 12 196 96 74 9882
141 0 12 198 96 74 9880
142 0 12 197 97 75 9881
143 2 13 94 93 90 -1
144 0 13 91 95 90 5950
145 0 13 91 96 90 7866
146 0 13 91 97 90 7874
147 0 13 91 94 91 7868
148 0 13 92 94 91 7870
149 0 13 96 97 90 9409
150 0 13 95 98 90 -1
151 0 13 96 99 90 6140
152 0 13 97 96 89 5943
153 0 13 98 95 90 6151
154 2 14 37 29 110 -1
155 0 14 36 34 110 7220
156 0 14 36 33 109 7217
157 0 14 37 33 110 7222
158 0 14 35 34 109 7226
159 0 14 36 34 109 7221
160 0 14 37 33 111 7223
161 0 14 37 34 111 7218
162 0 14 37 34 112 -1
163 0 14 36 34 112 7224
164 0 14 35 34 111 7225
165 2 15 175 31 95 -1
166 0 15 175 34 98 8086
167 0 15 176 35 97 7542
168 0 15 176 35 96 -1
169 0 15 175 34 99 8089
170 0 15 174 33 98 8090
171 0 15 179 32 97 -1
172 0 15 178 33 97 7537
173 0 15 179 33 98 7536
174 0 15 180 31 96 8095
175 0 15 180 32 96 8094
176 2 16 63 5 192 -1
177 0 16 65 9 191 6595
178 0 16 66 8 191 6597
179 0 16 65 7 192 6596
180 0 16 65 10 192 6598
181 0 16 64 9 192 -1
182 0 16 63 5 196 6480
183 0 16 64 6 195 -1
184 0 16 65 6 195 6485
185 0 16 64 5 196 -1
186 0 16 64 5 195 6482
187 2 17 91 103 97 -1
188 0 17 94 106 98 -1
189 0 17 93 107 98 6948
190 0 17 92 107 98 6945
191 0 17 93 106 98 6949
192 0 17 93 105 99 -1
193 0 17 89 106 98 5931
194 0 17 90 107 97 6232
195 0 17 90 108 97 9002
196 0 17 88 106 99 7186
197 0 17 88 107 100 7184
198 2 18 96 91 110 -1
199 0 18 98 92 109 8454
200 0 18 98 93 108 8029
201 0 18 99 94 108 10982
202 0 18 99 92 110 6214
203 0 18 99 91 110 10979
204 0 18 98 95 109 8023
205 0 18 99 96 110 -1
206 0 18 100 97 109 10015
207 0 18 99 96 108 8020
208 0 18 99 97 108 8024
209 2 19 89 111 188 -1
210 0 19 88 107 189 6200
211 0 19 87 108 190 6202
212 0 19 87 109 190 6203
213 0 19 87 106 190 6199
214 0 19 88 106 190 6201
215 0 19 89 107 187 -1
216 0 19 88 107 188 6195
217 0 19 87 107 188 6196
218 0 19 88 108 188 6197
219 0 19 88 108 187 6198
220 2 20 107 98 89 -1
221 0 20 106 97 94 -1
222 0 20 107 96 93 10078
223 0 20 108 95 93 10081
224 0 20 107 98 93 8439
225 0 20 107 99 93 8442
226 0 20 110 97 93 7922
227 0 20 109 97 92 7921
228 0 20 108 97 93 8444
229 0 20 110 98 94 7923
230 0 20 109 99 94 6224
231 2 21 88 11 18 -1
232 0 21 91 9 18 7943
233 0 21 91 10 18 7944
234 0 21 92 11 18 -1
235 0 21 92 9 17 7947
236 0 21 92 8 18 7946
237 0 21 93 11 19 8302
238 0 21 93 12 20 8301
239 0 21 92 12 21 8304
240 0 21 92 11 20 -1
241 0 21 91 10 20 8300
242 2 22 95 104 102 -1
243 0 22 94 108 103 6753
244 0 22 94 109 102 7803
245 0 22 94 109 103 7800
246 0 22 94 109 104 6396
247 0 22 95 110 104 7591
248 0 22 96 109 101 6750
249 0 22 96 109 102 6751
250 0 22 97 109 102 7490
251 0 22 97 109 101 -1
252 0 22 96 110 100 8076
253 2 23 58 5 51 -1
254 0 23 56 3 53 5993
255 0 23 55 4 52 5988
256 0 23 55 4 53 -1
257 0 23 55 3 54 5990
258 0 23 55 3 53 5992
259 0 23 57 4 54 5994
260 0 23 56 3 54 5985
261 0 23 57 2 54 -1
262 0 23 56 5 54 5986
263 0 23 56 5 55 -1
264 2 24 187 140 12 -1
265 0 24 188 143 14 8168
266 0 24 189 142 15 -1
267 0 24 188 143 15 8170
268 0 24 187 142 14 8172
269 0 24 188 142 13 8169
270 0 24 186 142 11 8167
271 0 24 187 143 10 -1
272 0 24 187 143 11 8163
273 0 24 186 142 12 8166
274 0 24 185 143 13 -1
275 2 25 178 15 115 -1
276 0 25 174 12 115 10699
277 0 25 174 13 115 10698
278 0 25 174 13 114 -1
279 0 25 175 13 114 10701
280 0 25 175 13 115 10700
281 0 25 176 19 117 10694
282 0 25 176 19 118 10696
283 0 25 177 19 119 -1
284 0 25 176 19 116 10697
285 0 25 176 18 116 10693
286 2 26 113 148 139 -1
287 0 26 117 150 139 -1
288 0 26 117 150 138 5614
289 0 26 116 151 138 -1
290 0 26 118 151 138 5615
291 0 26 118 150 139 5613
292 0 26 115 151 139 5617
293 0 26 114 152 139 5616
294 0 26 113 153 139 5618
295 0 26 115 150 139 5619
296 0 26 115 149 138 5611
297 2 27 114 102 110 -1
298 0 27 113 101 105 9662
299 0 27 112 102 106 6742
300 0 27 111 101 107 7262
301 0 27 112 100 104 7077
302 0 27 112 99 103 10547
303 0 27 112 104 109 -1
304 0 27 112 104 108 7264
305 0 27 113 103 107 9667
306 0 27 113 104 108 7261
307 0 27 113 103 108 -1
308 2 28 105 95 86 -1
309 0 28 104 91 89 -1
310 0 28 103 90 90 6862
311 0 28 103 91 89 6863
312 0 28 105 92 88 5817
313 0 28 104 93 87 9762
314 0 28 104 95 91 -1
315 0 28 104 94 91 7009
316 0 28 105 95 92 6110
317 0 28 103 94 91 6106
318 0 28 104 93 90 5815
319 2 29 57 22 176 -1
320 0 29 57 26 177 -1
321 0 29 58 25 176 -1
322 0 29 57 25 175 -1
323 0 29 58 26 178 -1
324 0 29 58 26 179 8610
325 0 29 58 24 179 -1
326 0 29 59 24 180 8608
327 0 29 59 24 179 8609
328 0 29 59 23 180 8611
329 0 29 59 23 181 8612
330 2 30 108 87 110 -1
331 0 30 108 87 114 10985
332 0 30 109 86 115 9943
333 0 30 108 87 116 10986
334 0 30 107 86 115 9939
335 0 30 108 85 115 9941
336 0 30 105 86 112 9938
337 0 30 106 86 113 10988
338 0 30 106 85 113 9940
339 0 30 104 85 112 -1
340 0 30 104 84 112 9935
341 2 31 56 105 47 -1
342 0 31 55 102 45 10199
343 0 31 55 101 46 10202
344 0 31 55 100 45 10201
345 0 31 54 101 44 10204
346 0 31 53 101 44 10205
347 0 31 53 102 44 10203
348 0 31 52 103 44 10206
349 0 31 51 104 43 -1
350 0 31 54 102 45 10198
351 0 31 53 101 46 -1
352 2 32 104 185 17 -1
353 0 32 100 184 20 8868
354 0 32 100 185 20 6001
355 0 32 99 185 19 8869
356 0 32 101 185 19 8874
357 0 32 101 186 20 8873
358 0 32 104 184 22 7126
359 0 32 103 184 23 7127
360 0 32 102 185 24 7123
361 0 32 103 185 23 7124
362 0 32 102 186 22 7125
363 2 33 70 84 114 -1
364 0 33 70 87 118 9125
365 0 33 70 86 118 9127
366 0 33 71 86 119 9120
367 0 33 71 88 119 9124
368 0 33 70 89 119 9129
369 0 33 72 86 118 9122
370 0 33 73 86 119 -1
371 0 33 72 85 119 9121
372 0 33 71 87 119 9123
373 0 33 70 88 118 9128
374 2 34 191 34 63 -1
375 0 34 195 32 63 6561
376 0 34 196 33 63 6558
377 0 34 197 32 63 6562
378 0 34 196 31 62 -1
379 0 34 197 31 61 6566
380 0 34 194 31 62 6560
381 0 34 195 32 62 6559
382 0 34 196 31 63 6564
383 0 34 194 31 61 -1
384 0 34 194 30 61 6563
385 2 35 101 92 102 -1
386 0 35 102 88 101 -1
387 0 35 103 89 100 7259
388 0 35 103 88 101 -1
389 0 35 102 87 102 8287
390 0 35 101 86 101 8045
391 0 35 101 87 101 10925
392 0 35 101 87 100 6520
393 0 35 102 88 100 8285
394 0 35 102 86 100 8406
395 0 35 103 85 100 6522
396 2 36 102 122 96 -1
397 0 36 99 121 100 7357
398 0 36 98 120 99 -1
399 0 36 97 121 100 9490
400 0 36 99 122 99 7358
401 0 36 100 122 99 7355
402 0 36 101 118 99 8362
403 0 36 100 117 100 7350
404 0 36 99 117 99 8364
405 0 36 101 119 100 7356
406 0 36 100 119 100 8363
407 2 37 101 101 112 -1
408 0 37 104 97 111 7796
409 0 37 104 96 112 10895
410 0 37 105 95 112 7795
411 0 37 104 96 111 8116
412 0 37 105 95 110 10893
413 0 37 100 98 111 10011
414 0 37 99 98 112 10575
415 0 37 98 99 113 10574
416 0 37 99 99 110 10014
417 0 37 100 100 110 10572
418 2 38 89 91 92 -1
419 0 38 87 95 91 -1
420 0 38 88 95 90 6971
421 0 38 88 94 91 -1
422 0 38 88 96 91 6970
423 0 38 88 97 92 6068
424 0 38 91 92 96 6172
425 0 38 92 92 97 10679
426 0 38 93 93 96 5914
427 0 38 91 91 96 8213
428 0 38 91 91 97 8216
429 2 39 107 103 101 -1
430 0 39 110 106 99 8934
431 0 39 111 107 100 -1
432 0 39 111 108 100 8936
433 0 39 109 107 98 8933
434 0 39 108 107 97 6494
435 0 39 109 104 97 9511
436 0 39 110 104 97 -1
437 0 39 110 104 96 9510
438 0 39 109 105 98 9513
439 0 39 110 104 99 -1
440 2 40 102 113 108 -1
441 0 40 99 109 109 7047
442 0 40 100 108 110 6349
443 0 40 99 107 109 7822
444 0 40 98 108 108 7892
445 0 40 98 107 109 -1
446 0 40 104 109 106 10963
447 0 40 104 108 106 10213
448 0 40 105 107 105 9472
449 0 40 104 110 107 10966
450 0 40 103 109 107 8322
451 2 41 105 106 88 -1
452 0 41 106 106 93 6499
453 0 41 105 105 94 9421
454 0 41 105 104 95 9420
455 0 41 105 105 92 6498
456 0 41 105 106 93 8134
457 0 41 106 107 91 -1
458 0 41 105 108 91 8131
459 0 41 105 108 90 9162
460 0 41 107 106 91 8133
461 0 41 107 105 91 8333
462 2 42 106 87 94 -1
463 0 42 104 91 93 6860
464 0 42 105 91 93 9903
465 0 42 106 90 93 -1
466 0 42 105 91 92 6759
467 0 42 106 92 93 6108
468 0 42 103 91 95 -1
469 0 42 104 91 95 5812
470 0 42 104 90 94 -1
471 0 42 102 92 95 6855
472 0 42 103 91 94 5810
473 2 43 112 99 111 -1
474 0 43 108 99 108 5983
475 0 43 108 99 109 5982
476 0 43 108 100 110 6529
477 0 43 109 100 107 7286
478 0 43 108 101 107 8918
479 0 43 107 98 111 -1
480 0 43 106 98 112 8114
481 0 43 105 99 112 8115
482 0 43 107 97 110 10897
483 0 43 108 97 111 6527
484 2 44 97 105 87 -1
485 0 44 100 103 90 6651
486 0 44 99 104 91 7209
487 0 44 99 103 91 9358
488 0 44 99 102 89 6653
489 0 44 100 101 89 8520
490 0 44 102 104 87 8138
491 0 44 102 104 88 10053
492 0 44 103 103 88 7136
493 0 44 101 104 87 8137
494 0 44 100 103 88 6650
495 2 45 92 109 107 -1
496 0 45 94 107 107 8398
497 0 45 95 106 108 8397
498 0 45 94 106 107 8400
499 0 45 94 107 108 5769
500 0 45 93 107 109 6806
501 0 45 95 111 105 6400
502 0 45 95 112 105 6397
503 0 45 94 113 104 7600
504 0 45 94 112 106 6401
505 0 45 93 113 105 7595
506 2 46 103 82 17 -1
507 0 46 106 86 18 10260
508 0 46 106 85 17 10258
509 0 46 105 86 17 10257
510 0 46 105 86 18 10256
511 0 46 104 85 18 10254
512 0 46 102 86 17 7521
513 0 46 101 85 18 7520
514 0 46 100 86 17 7518
515 0 46 101 87 17 7514
516 0 46 101 86 16 7519
517 2 47 92 101 97 -1
518 0 47 90 98 99 8002
519 0 47 91 98 98 7999
520 0 47 91 97 97 10634
521 0 47 89 97 100 6243
522 0 47 90 96 101 10653
523 0 47 88 102 97 -1
524 0 47 87 101 96 -1
525 0 47 86 102 97 10807
526 0 47 87 102 97 10806
527 0 47 86 103 98 6327
528 2 48 159 26 176 -1
529 0 48 157 28 175 -1
530 0 48 157 29 176 10034
531 0 48 158 30 177 7347
532 0 48 156 27 174 10168
533 0 48 155 27 174 10040
534 0 48 159 31 175 5778
535 0 48 160 31 176 10358
536 0 48 159 32 175 10359
537 0 48 158 32 174 -1
538 0 48 157 32 173 7341
539 2 49 85 117 124 -1
540 0 49 85 112 125 6015
541 0 49 84 113 125 6008
542 0 49 84 113 124 6016
543 0 49 84 112 126 6009
544 0 49 83 111 125 6013
545 0 49 85 112 123 6010
546 0 49 86 111 123 6012
547 0 49 87 111 124 -1
548 0 49 85 113 123 6007
549 0 49 86 112 122 6011
550 2 50 99 90 85 -1
551 0 50 100 93 88 9558
552 0 50 101 92 87 9555
553 0 50 101 91 87 9610
554 0 50 101 94 87 -1
555 0 50 101 95 88 7010
556 0 50 100 91 89 9613
557 0 50 101 90 89 -1
558 0 50 102 91 90 -1
559 0 50 100 90 90 7016
560 0 50 101 91 89 7015
561 2 51 97 108 99 -1
562 0 51 95 108 103 9337
563 0 51 96 109 104 8565
564 0 51 95 108 105 6395
565 0 51 94 107 104 9334
566 0 51 95 108 104 6392
567 0 51 94 112 100 8589
568 0 51 95 111 101 8075
569 0 51 94 111 100 5805
570 0 51 95 111 99 5804
571 0 51 95 110 98 5806
572 2 52 106 83 102 -1
573 0 52 102 84 101 8048
574 0 52 102 83 100 -1
575 0 52 102 84 100 8407
576 0 52 102 83 102 -1
577 0 52 103 84 102 8046
578 0 52 102 85 102 6521
579 0 52 103 86 102 6518
580 0 52 104 87 103 9843
581 0 52 101 85 101 6323
582 0 52 100 85 101 8051
583 2 53 134 86 137 -1
584 0 53 134 85 132 7096
585 0 53 133 84 132 7103
586 0 53 134 83 132 7101
587 0 53 133 86 132 10781
588 0 53 133 85 132 7104
589 0 53 132 87 134 10782
590 0 53 131 87 134 10788
591 0 53 130 87 133 10785
592 0 53 132 88 134 10789
593 0 53 133 87 133 10784
594 2 54 20 109 159 -1
595 0 54 24 107 161 10975
596 0 54 25 106 161 -1
597 0 54 24 105 162 10968
598 0 54 25 107 162 10971
599 0 54 25 108 162 10972
600 0 54 23 106 161 10973
601 0 54 24 106 160 10974
602 0 54 23 107 160 10969
603 0 54 22 106 162 10977
604 0 54 22 107 162 -1
605 2 55 104 86 108 -1
606 0 55 101 87 105 5523
607 0 55 101 87 104 5527
608 0 55 100 88 105 -1
609 0 55 101 86 105 9842
610 0 55 102 85 104 -1
611 0 55 104 89 105 -1
612 0 55 104 90 104 9837
613 0 55 104 90 103 9839
614 0 55 105 89 106 9018
615 0 55 104 90 105 -1
616 2 56 104 92 113 -1
617 0 56 107 92 111 6205
618 0 56 107 93 111 6418
619 0 56 108 93 110 6414
620 0 56 106 93 110 6422
621 0 56 107 93 109 -1
622 0 56 106 95 111 10900
623 0 56 105 96 110 10891
624 0 56 104 95 109 -1
625 0 56 107 95 112 6415
626 0 56 106 94 111 9671
627 2 57 65 191 83 -1
628 0 57 62 191 85 -1
629 0 57 62 190 84 7838
630 0 57 62 189 83 7839
631 0 57 63 190 85 7842
632 0 57 63 191 84 7841
633 0 57 64 196 83 7837
634 0 57 64 197 82 7834
635 0 57 65 197 83 7833
636 0 57 65 195 84 7836
637 0 57 65 195 83 7835
638 2 58 107 111 108 -1
639 0 58 108 110 104 8182
640 0 58 109 110 104 10293
641 0 58 108 109 104 10291
642 0 58 107 111 103 5578
643 0 58 106 110 103 5541
644 0 58 104 107 107 8318
645 0 58 103 108 107 8320
646 0 58 102 107 106 7824
647 0 58 104 108 107 8319
648 0 58 103 109 108 -1
649 2 59 104 87 106 -1
650 0 59 103 90 107 5528
651 0 59 102 89 108 6210
652 0 59 102 89 107 5532
653 0 59 102 90 107 5531
654 0 59 101 89 106 9862
655 0 59 101 89 109 6812
656 0 59 102 89 110 6213
657 0 59 103 90 109 5529
658 0 59 101 88 109 6211
659 0 59 100 88 110 6212
660 2 60 95 114 95 -1
661 0 60 96 113 98 6905
662 0 60 97 114 97 -1
663 0 60 98 115 97 7932
664 0 60 96 113 99 6907
665 0 60 95 113 99 8079
666 0 60 92 114 99 8590
667 0 60 92 113 99 -1
668 0 60 93 112 100 -1
669 0 60 92 114 100 -1
670 0 60 93 114 99 8588
671 2 61 99 96 83 -1
672 0 61 98 95 87 7328
673 0 61 98 94 87 9552
674 0 61 99 93 87 9553
675 0 61 97 96 87 9406
676 0 61 96 97 88 5945
677 0 61 99 97 88 7132
678 0 61 99 96 88 9549
679 0 61 100 97 89 9550
680 0 61 99 96 87 -1
681 0 61 100 96 86 7327
682 2 62 96 108 114 -1
683 0 62 96 107 109 5768
684 0 62 97 106 109 7044
685 0 62 97 107 109 5767
686 0 62 95 106 110 5765
687 0 62 96 106 109 -1
688 0 62 93 105 111 10004
689 0 62 92 105 110 10001
690 0 62 93 106 110 -1
691 0 62 93 104 112 -1
692 0 62 93 104 113 6183
693 2 63 83 95 107 -1
694 0 63 83 99 106 9518
695 0 63 84 100 105 7728
696 0 63 85 100 105 8264
697 0 63 82 98 105 8262
698 0 63 82 99 106 8263
699 0 63 85 97 103 8681
700 0 63 84 97 104 8680
701 0 63 84 97 103 8270
702 0 63 86 98 103 7240
703 0 63 86 99 104 7241
704 2 64 98 103 95 -1
705 0 64 98 105 97 9329
706 0 64 97 106 97 9331
707 0 64 97 106 96 9330
708 0 64 98 104 98 -1
709 0 64 97 104 98 -1
710 0 64 97 108 96 -1
711 0 64 96 107 95 7309
712 0 64 96 106 94 -1
713 0 64 96 109 96 10024
714 0 64 96 110 96 5807
715 2 65 16 69 176 -1
716 0 65 17 74 177 10814
717 0 65 18 74 177 10817
718 0 65 17 75 176 10815
719 0 65 17 73 177 10821
720 0 65 17 72 176 10822
721 0 65 12 69 179 9976
722 0 65 13 69 180 -1
723 0 65 12 70 180 9972
724 0 65 13 68 179 9973
725 0 65 12 69 178 9975
726 2 66 3 108 130 -1
727 0 66 3 106 126 7295
728 0 66 4 107 126 -1
729 0 66 4 106 127 -1
730 0 66 3 107 125 -1
731 0 66 3 107 124 7296
732 0 66 4 109 126 7297
733 0 66 3 108 127 7298
734 0 66 2 109 127 7294
735 0 66 3 110 126 7303
736 0 66 4 110 125 -1
737 2 67 151 1 82 -1
738 0 67 154 3 85 9720
739 0 67 155 3 85 9723
740 0 67 155 2 85 9718
741 0 67 153 2 84 9719
742 0 67 154 2 83 9714
743 0 67 154 0 85 9721
744 0 67 155 0 86 -1
745 0 67 154 1 87 -1
746 0 67 153 199 84 9716
747 0 67 152 0 85 9715
748 2 68 79 77 39 -1
749 0 68 78 80 36 10718
750 0 68 79 81 37 10715
751 0 68 78 80 38 10719
752 0 68 78 81 35 -1
753 0 68 77 81 34 10717
754 0 68 83 80 39 10720
755 0 68 82 80 38 10723
756 0 68 81 79 37 10724
757 0 68 84 81 39 10722
758 0 68 85 81 38 10721
759 2 69 89 114 92 -1
760 0 69 91 116 89 7037
761 0 69 90 116 90 7036
762 0 69 90 115 90 7033
763 0 69 92 116 88 7039
764 0 69 91 115 89 7038
765 0 69 85 114 89 8850
766 0 69 84 113 88 8847
767 0 69 83 112 88 -1
768 0 69 84 113 89 8846
769 0 69 83 113 88 8845
770 2 70 102 107 91 -1
771 0 70 103 108 95 9686
772 0 70 102 109 94 9687
773 0 70 101 109 95 9448
774 0 70 102 109 96 5537
775 0 70 103 108 96 8640
776 0 70 104 111 92 5706
777 0 70 103 112 92 9139
778 0 70 102 112 93 6540
779 0 70 103 110 92 9140
780 0 70 103 111 93 5707
781 2 71 118 82 169 -1
782 0 71 119 86 168 10880
783 0 71 120 85 168 10883
784 0 71 119 85 169 10884
785 0 71 119 85 167 -1
786 0 71 120 86 168 10881
787 0 71 115 86 169 -1
788 0 71 114 85 170 5551
789 0 71 113 86 170 -1
790 0 71 116 86 170 5554
791 0 71 115 87 169 5550
792 2 72 26 0 112 -1
793 0 72 25 197 113 10281
794 0 72 26 197 113 -1
795 0 72 26 198 112 10284
796 0 72 24 197 113 10280
797 0 72 25 196 113 10282
798 0 72 23 197 112 -1
799 0 72 24 198 113 10275
800 0 72 23 199 112 10278
801 0 72 24 197 111 10283
802 0 72 23 196 111 10277
803 2 73 142 29 6 -1
804 0 73 146 29 9 8620
805 0 73 147 28 10 8619
806 0 73 146 29 11 8622
807 0 73 147 30 10 8623
808 0 73 147 31 9 -1
809 0 73 145 28 7 8614
810 0 73 146 28 6 8618
811 0 73 146 29 5 8617
812 0 73 146 29 8 8615
813 0 73 147 29 8 8616
814 2 74 105 100 83 -1
815 0 74 101 99 84 5508
816 0 74 102 99 85 5750
817 0 74 103 99 86 5501
818 0 74 100 99 84 7130
819 0 74 100 98 85 6648
820 0 74 104 98 87 10044
821 0 74 105 99 88 5502
822 0 74 105 100 89 -1
823 0 74 104 99 86 5503
824 0 74 105 98 87 -1
825 2 75 94 99 95 -1
826 0 75 98 97 97 -1
827 0 75 99 97 96 9354
828 0 75 99 98 95 -1
829 0 75 98 97 96 -1
830 0 75 98 98 97 9351
831 0 75 93 94 95 5917
832 0 75 93 93 94 6569
833 0 75 92 93 93 6568
834 0 75 94 94 94 6571
835 0 75 95 93 93 6572
836 2 76 158 30 172 -1
837 0 76 155 29 175 10041
838 0 76 154 30 176 10042
839 0 76 154 29 177 -1
840 0 76 154 29 174 10039
841 0 76 155 30 173 10038
842 0 76 162 30 174 5783
843 0 76 163 29 173 -1
844 0 76 164 29 172 10481
845 0 76 162 31 174 6449
846 0 76 161 30 173 5782
847 2 77 97 104 85 -1
848 0 77 97 99 86 6047
849 0 77 98 99 85 6647
850 0 77 98 100 84 7334
851 0 77 97 99 87 -1
852 0 77 96 99 88 5941
853 0 77 95 101 88 10638
854 0 77 95 101 87 6048
855 0 77 96 101 86 6045
856 0 77 95 100 89 -1
857 0 77 95 99 89 6139
858 2 78 90 113 98 -1
859 0 78 94 111 97 8584
860 0 78 93 112 97 8587
861 0 78 92 112 98 6901
862 0 78 95 111 96 10022
863 0 78 94 112 97 8586
864 0 78 92 110 97 7307
865 0 78 93 109 98 6942
866 0 78 92 108 98 6748
867 0 78 92 110 98 6898
868 0 78 91 109 98 6230
869 2 79 96 97 85 -1
870 0 79 97 99 89 8518
871 0 79 97 99 88 8515
872 0 79 96 98 88 6049
873 0 79 97 98 88 9413
874 0 79 98 97 88 -1
875 0 79 98 98 89 6141
876 0 79 97 98 90 5942
877 0 79 98 99 91 -1
878 0 79 98 98 88 9407
879 0 79 98 99 89 9408
880 2 80 35 3 94 -1
881 0 80 33 1 94 6477
882 0 80 32 1 93 6474
883 0 80 33 0 94 6478
884 0 80 33 2 95 6476
885 0 80 33 3 95 6472
886 0 80 33 3 97 6471
887 0 80 32 4 98 6470
888 0 80 31 4 97 -1
889 0 80 32 3 98 -1
890 0 80 33 4 97 6469
891 2 81 85 94 101 -1
892 0 81 89 95 101 10652
893 0 81 88 95 102 -1
894 0 81 87 96 101 5966
895 0 81 89 94 102 10649
896 0 81 88 94 101 5963
897 0 81 88 96 103 7239
898 0 81 88 97 104 7456
899 0 81 87 96 104 9979
900 0 81 87 97 103 7242
901 0 81 88 98 103 9195
902 2 82 96 95 103 -1
903 0 82 97 93 107 8457
904 0 82 96 92 107 9774
905 0 82 96 91 108 8455
906 0 82 98 94 107 8026
907 0 82 97 95 106 7388
908 0 82 98 95 107 8022
909 0 82 97 95 108 8028
910 0 82 96 96 109 6989
911 0 82 97 96 107 8025
912 0 82 98 96 108 8021
913 2 83 92 98 87 -1
914 0 83 92 97 92 6968
915 0 83 92 98 91 6967
916 0 83 92 97 90 -1
917 0 83 92 96 92 -1
918 0 83 91 95 92 -1
919 0 83 92 99 92 -1
920 0 83 93 98 91 5949
921 0 83 92 99 90 6966
922 0 83 92 98 93 6181
923 0 83 93 97 92 7872
924 2 84 101 103 93 -1
925 0 84 99 106 94 -1
926 0 84 98 107 93 -1
927 0 84 99 108 94 5798
928 0 84 99 106 93 9444
929 0 84 100 106 92 -1
930 0 84 100 106 90 7206
931 0 84 99 105 90 9442
932 0 84 98 105 90 7628
933 0 84 101 105 90 6652
934 0 84 101 105 91 7212
935 2 85 107 96 99 -1
936 0 85 105 93 97 6339
937 0 85 105 93 98 -1
938 0 85 104 93 99 7554
939 0 85 106 94 98 10399
940 0 85 107 94 99 9530
941 0 85 108 96 94 8443
942 0 85 108 97 95 10402
943 0 85 107 97 94 10085
944 0 85 108 95 95 10077
945 0 85 109 96 94 8445
946 2 86 108 111 95 -1
947 0 86 107 107 94 7433
948 0 86 107 107 95 7428
949 0 86 108 107 96 8938
950 0 86 107 108 94 9503
951 0 86 106 107 94 -1
952 0 86 108 106 95 -1
953 0 86 107 106 96 7435
954 0 86 107 105 97 8940
955 0 86 107 106 94 6497
956 0 86 107 105 95 8942
957 2 87 108 111 97 -1
958 0 87 104 111 94 9689
959 0 87 104 112 94 9497
960 0 87 105 111 93 9499
961 0 87 105 111 95 5705
962 0 87 106 111 95 9496
963 0 87 105 107 97 8931
964 0 87 106 107 96 7430
965 0 87 105 108 96 6492
966 0 87 104 106 97 9418
967 0 87 103 107 98 8927
968 2 88 137 74 123 -1
969 0 88 138 69 123 8378
970 0 88 139 68 123 8377
971 0 88 138 68 123 8376
972 0 88 137 70 122 8375
973 0 88 137 69 122 -1
974 0 88 132 75 123 5741
975 0 88 133 74 124 5740
976 0 88 132 75 125 5737
977 0 88 132 74 124 5739
978 0 88 131 74 125 5738
979 2 89 96 116 105 -1
980 0 89 97 112 103 7567
981 0 89 96 111 103 8568
982 0 89 95 110 102 8567
983 0 89 97 111 104 7562
984 0 89 97 111 105 8564
985 0 89 99 112 104 5671
986 0 89 99 113 105 5668
987 0 89 98 112 106 -1
988 0 89 98 112 103 7561
989 0 89 98 111 103 7565
990 2 90 44 132 134 -1
991 0 90 45 129 131 8658
992 0 90 45 130 131 8659
993 0 90 44 131 130 8663
994 0 90 46 128 132 8662
995 0 90 46 129 131 8661
996 0 90 47 131 130 8665
997 0 90 47 132 130 8666
998 0 90 46 132 131 8667
999 0 90 47 132 131 8664
1000 0 90 47 131 132 -1
1001 2 91 106 84 94 -1
1002 0 91 105 88 97 6346
1003 0 91 105 88 96 10919
1004 0 91 104 87 96 8411
1005 0 91 105 88 98 10918
1006 0 91 105 87 98 8551
1007 0 91 103 87 96 8549
1008 0 91 103 88 96 8557
1009 0 91 102 89 95 8412
1010 0 91 104 87 97 8556
1011 0 91 103 86 96 9906
1012 2 92 63 11 192 -1
1013 0 92 66 9 194 6590
1014 0 92 66 8 195 6488
1015 0 92 65 9 195 -1
1016 0 92 67 8 193 6487
1017 0 92 67 9 192 6594
1018 0 92 65 8 195 6489
1019 0 92 64 8 196 -1
1020 0 92 65 7 196 -1
1021 0 92 64 8 195 -1
1022 0 92 65 9 194 6591
1023 2 93 187 33 117 -1
1024 0 93 187 35 116 5724
1025 0 93 186 35 116 -1
1026 0 93 186 35 115 5721
1027 0 93 186 36 115 5722
1028 0 93 185 37 114 5723
1029 0 93 191 35 118 5729
1030 0 93 192 36 119 -1
1031 0 93 192 36 120 5728
1032 0 93 192 36 117 5730
1033 0 93 193 37 118 5727
1034 2 94 112 101 102 -1
1035 0 94 112 103 104 -1
1036 0 94 113 102 105 10539
1037 0 94 112 103 106 7955
1038 0 94 111 104 105 7958
1039 0 94 112 105 104 6740
1040 0 94 114 102 102 7418
1041 0 94 114 103 101 -1
1042 0 94 115 103 100 10911
1043 0 94 115 102 102 7424
1044 0 94 115 103 101 9652
1045 2 95 87 100 109 -1
1046 0 95 91 101 106 -1
1047 0 95 90 100 105 7574
1048 0 95 90 99 106 9395
1049 0 95 90 102 106 7576
1050 0 95 90 101 106 9397
1051 0 95 88 102 105 10339
1052 0 95 87 102 105 7532
1053 0 95 86 101 105 7731
1054 0 95 88 101 104 7767
1055 0 95 87 101 105 7527
1056 2 96 98 101 95 -1
1057 0 96 97 100 90 -1
1058 0 96 98 101 90 9356
1059 0 96 99 100 91 8524
1060 0 96 98 100 90 6143
1061 0 96 97 99 91 6148
1062 0 96 97 106 95 10647
1063 0 96 97 107 94 10646
1064 0 96 96 106 95 9332
1065 0 96 96 107 94 10031
1066 0 96 96 107 93 -1
1067 2 97 157 27 156 -1
1068 0 97 161 27 156 7611
1069 0 97 160 28 156 7610
1070 0 97 160 28 157 7607
1071 0 97 162 27 157 -1
1072 0 97 161 26 157 7609
1073 0 97 158 27 153 7603
1074 0 97 157 26 152 7605
1075 0 97 158 25 152 7606
1076 0 97 157 26 153 7604
1077 0 97 156 27 152 7602
1078 2 98 112 98 88 -1
1079 0 98 112 97 93 -1
1080 0 98 111 97 94 7925
1081 0 98 112 98 93 6273
1082 0 98 113 98 94 7928
1083 0 98 114 98 94 -1
1084 0 98 112 99 93 9506
1085 0 98 111 98 94 -1
1086 0 98 112 99 95 8831
1087 0 98 111 98 92 -1
1088 0 98 111 99 93 -1
1089 2 99 92 109 110 -1
1090 0 99 93 105 108 6799
1091 0 99 92 105 108 6804
1092 0 99 92 104 109 6803
1093 0 99 94 106 108 7807
1094 0 99 93 105 109 6801
1095 0 99 96 109 108 8561
1096 0 99 97 109 109 7888
1097 0 99 96 109 110 7889
1098 0 99 95 110 107 6399
1099 0 99 95 111 106 7802
1100 2 100 53 15 117 -1
1101 0 100 57 13 117 -1
1102 0 100 57 14 116 -1
1103 0 100 58 14 116 -1
1104 0 100 58 12 117 -1
1105 0 100 58 12 116 -1
1106 0 100 56 15 118 -1
1107 0 100 55 14 117 -1
1108 0 100 55 15 116 -1
1109 0 100 56 16 118 -1
1110 0 100 56 16 119 -1
1111 2 101 106 116 105 -1
1112 0 101 102 115 104 5583
1113 0 101 101 116 104 5585
1114 0 101 102 117 104 5587
1115 0 101 101 116 103 5586
1116 0 101 101 115 102 7983
1117 0 101 103 115 101 10375
1118 0 101 103 114 101 7981
1119 0 101 104 114 100 8099
1120 0 101 102 116 101 10488
1121 0 101 102 115 102 10378
1122 2 102 159 88 70 -1
1123 0 102 161 87 69 -1
1124 0 102 160 86 69 7463
1125 0 102 159 86 70 -1
1126 0 102 160 86 68 -1
1127 0 102 161 86 68 -1
1128 0 102 162 89 69 7466
1129 0 102 162 88 69 7460
1130 0 102 161 87 70 7462
1131 0 102 161 89 70 7465
1132 0 102 162 90 70 7464
1133 2 103 105 12 98 -1
1134 0 103 105 11 96 -1
1135 0 103 104 11 95 10666
1136 0 103 103 12 96 10665
1137 0 103 104 12 96 -1
1138 0 103 103 12 97 10669
1139 0 103 104 10 95 10662
1140 0 103 104 9 94 10663
1141 0 103 105 8 94 10661
1142 0 103 105 9 94 10664
1143 0 103 106 8 95 10660
1144 2 104 151 43 10 -1
1145 0 104 152 41 13 6777
1146 0 104 153 41 13 6786
1147 0 104 152 40 14 6780
1148 0 104 151 40 12 6778
1149 0 104 152 39 12 -1
1150 0 104 152 43 12 6782
1151 0 104 153 44 13 6784
1152 0 104 154 43 13 -1
1153 0 104 151 44 13 6783
1154 0 104 150 43 13 6779
1155 2 105 86 92 101 -1
1156 0 105 89 95 103 -1
1157 0 105 89 96 102 9193
1158 0 105 90 97 103 9186
1159 0 105 90 96 104 9192
1160 0 105 90 96 105 7453
1161 0 105 91 93 102 7510
1162 0 105 92 94 102 9190
1163 0 105 92 94 101 -1
1164 0 105 92 92 101 7512
1165 0 105 92 91 101 7509
1166 2 106 114 94 108 -1
1167 0 106 110 95 105 9877
1168 0 106 109 95 105 9871
1169 0 106 110 96 105 9873
1170 0 106 109 95 106 -1
1171 0 106 110 94 106 9868
1172 0 106 112 96 105 9870
1173 0 106 112 96 106 9242
1174 0 106 111 95 107 7288
1175 0 106 111 97 104 9876
1176 0 106 112 97 105 9241
1177 2 107 107 100 86 -1
1178 0 107 107 101 91 8971
1179 0 107 108 100 92 6115
1180 0 107 107 99 92 10083
1181 0 107 106 102 90 6843
1182 0 107 106 101 90 8973
1183 0 107 105 103 87 -1
1184 0 107 104 104 87 7135
1185 0 107 105 103 88 6844
1186 0 107 104 102 86 7138
1187 0 107 105 103 86 8332
1188 2 108 101 111 106 -1
1189 0 108 99 111 105 -1
1190 0 108 99 110 104 7482
1191 0 108 99 111 104 5675
1192 0 108 98 111 106 7483
1193 0 108 99 110 106 5771
1194 0 108 97 110 107 8563
1195 0 108 96 109 106 5772
1196 0 108 96 110 107 8562
1197 0 108 96 111 107 7563
1198 0 108 96 111 106 6393
1199 2 109 112 96 110 -1
1200 0 109 110 99 107 7287
1201 0 109 111 98 107 5975
1202 0 109 110 97 106 7081
1203 0 109 109 98 108 5979
1204 0 109 110 99 109 -1
1205 0 109 112 99 106 9666
1206 0 109 111 100 107 7284
1207 0 109 112 101 106 10542
1208 0 109 111 100 105 10215
1209 0 109 112 100 106 10540
1210 2 110 114 184 94 -1
1211 0 110 116 182 93 9632
1212 0 110 117 182 92 9631
1213 0 110 117 183 93 -1
1214 0 110 115 181 92 9635
1215 0 110 115 182 93 9634
1216 0 110 113 182 92 9627
1217 0 110 112 182 93 9630
1218 0 110 112 181 94 9628
1219 0 110 113 181 92 9629
1220 0 110 112 181 91 9626
1221 2 111 160 2 18 -1
1222 0 111 160 0 18 7581
1223 0 111 160 0 19 7583
1224 0 111 161 0 19 7580
1225 0 111 159 199 18 7582
1226 0 111 160 198 17 -1
1227 0 111 161 199 14 7589
1228 0 111 161 199 13 -1
1229 0 111 161 0 14 7588
1230 0 111 160 0 15 7587
1231 0 111 159 199 14 -1
1232 2 112 102 119 103 -1
1233 0 112 99 118 102 -1
1234 0 112 99 117 103 10381
1235 0 112 100 116 102 7937