ITEM: TIMESTEP
0
ITEM: NUMBER OF ATOMS
11000
ITEM: BOX BOUNDS pp pp pp
0 200
0 200
0 200
ITEM: ATOMS id type mol x y z bP
0 2 0 33 131 30 -1
1 0 0 35 129 33 8848
2 0 0 35 129 32 -1
3 0 0 36 129 33 -1
4 0 0 34 130 33 8846
5 0 0 34 129 33 8845
6 0 0 33 128 28 8852
7 0 0 32 128 29 -1
8 0 0 32 129 29 8850
9 0 0 33 129 27 8854
10 0 0 34 128 27 8851
11 2 1 195 187 194 -1
12 0 1 195 186 189 10674
13 0 1 195 186 190 -1
14 0 1 195 185 191 10675
15 0 1 194 187 190 -1
16 0 1 195 188 190 5855
17 0 1 198 188 191 6874
18 0 1 199 189 190 -1
19 0 1 198 189 190 -1
20 0 1 197 187 192 -1
21 0 1 196 187 193 5857
22 2 2 7 117 176 -1
23 0 2 6 114 175 -1
24 0 2 5 114 174 6750
25 0 2 4 114 175 6745
26 0 2 5 115 174 6753
27 0 2 4 115 173 6746
28 0 2 6 116 174 -1
29 0 2 6 116 173 6752
30 0 2 6 115 173 6749
31 0 2 7 115 175 6751
32 0 2 7 115 176 -1
33 2 3 157 192 162 -1
34 0 3 153 195 163 10228
35 0 3 154 194 164 10463
36 0 3 153 193 164 10225
37 0 3 154 195 162 10471
38 0 3 154 194 161 -1
39 0 3 156 192 164 -1
40 0 3 155 193 163 10465
41 0 3 155 193 162 -1
42 0 3 155 193 165 10222
43 0 3 154 193 166 10226
44 2 4 193 50 128 -1
45 0 4 196 53 129 -1
46 0 4 196 52 128 -1
47 0 4 195 51 128 -1
48 0 4 196 53 128 6164
49 0 4 197 52 127 -1
50 0 4 195 53 126 6162
51 0 4 194 52 127 -1
52 0 4 193 53 128 -1
53 0 4 195 54 125 6163
54 0 4 194 54 125 10897
55 2 5 106 196 87 -1
56 0 5 103 199 87 7396
57 0 5 102 199 86 7395
58 0 5 101 199 87 7397
59 0 5 103 198 86 -1
60 0 5 104 198 87 7394
61 0 5 107 1 86 7400
62 0 5 106 1 86 7398
63 0 5 107 2 87 -1
64 0 5 107 0 87 7401
65 0 5 108 1 88 -1
66 2 6 105 160 50 -1
67 0 6 104 160 45 5504
68 0 6 104 159 45 5502
69 0 6 105 160 44 5503
70 0 6 104 159 44 5505
71 0 6 104 158 43 -1
72 0 6 103 159 48 -1
73 0 6 103 158 48 5506
74 0 6 104 157 48 5507
75 0 6 102 158 48 5510
76 0 6 102 157 49 -1
77 2 7 161 8 192 -1
78 0 7 162 6 192 -1
79 0 7 163 6 191 6093
80 0 7 163 7 192 -1
81 0 7 161 5 191 6091
82 0 7 161 4 191 6084
83 0 7 162 4 192 6090
84 0 7 162 4 191 6085
85 0 7 162 5 191 6092
86 0 7 163 3 192 -1
87 0 7 162 3 193 -1
88 2 8 186 129 130 -1
89 0 8 188 126 131 6077
90 0 8 189 126 131 -1
91 0 8 188 127 132 6076
92 0 8 187 127 130 -1
93 0 8 186 126 129 9467
94 0 8 186 128 127 -1
95 0 8 185 128 128 9470
96 0 8 184 127 129 9469
97 0 8 185 127 128 9466
98 0 8 186 127 127 9468
99 2 9 39 66 21 -1
100 0 9 40 63 21 7675
101 0 9 39 62 21 7412
102 0 9 40 62 21 -1
103 0 9 40 63 20 7674
104 0 9 40 62 20 7410
105 0 9 39 62 19 7411
106 0 9 38 63 20 7413
107 0 9 37 63 21 -1
108 0 9 40 62 18 7409
109 0 9 39 62 17 -1
110 2 10 134 173 56 -1
111 0 10 135 175 52 -1
112 0 10 134 176 52 8939
113 0 10 133 177 51 8942
114 0 10 135 176 53 -1
115 0 10 136 176 52 8940
116 0 10 133 174 52 8934
117 0 10 132 173 53 8937
118 0 10 132 174 53 -1
119 0 10 134 175 53 8933
120 0 10 134 176 53 8935
121 2 11 72 26 9 -1
122 0 11 71 30 9 6188
123 0 11 70 29 8 6186
124 0 11 71 29 7 6184
125 0 11 70 29 9 -1
126 0 11 70 30 8 -1
127 0 11 69 27 10 6191
128 0 11 70 27 9 -1
129 0 11 70 26 9 -1
130 0 11 68 27 10 6189
131 0 11 69 26 9 -1
132 2 12 129 1 9 -1
133 0 12 132 1 5 -1
134 0 12 132 2 6 9887
135 0 12 131 1 6 -1
136 0 12 131 2 5 9884
137 0 12 130 2 5 9880
138 0 12 131 3 6 9886
139 0 12 130 4 6 9881
140 0 12 131 5 6 9885
141 0 12 131 2 7 9879
142 0 12 132 2 7 9882
143 2 13 24 4 180 -1
144 0 13 27 6 183 7159
145 0 13 26 7 183 7158
146 0 13 26 6 184 -1
147 0 13 27 7 182 7156
148 0 13 28 7 183 7160
149 0 13 20 4 181 7152
150 0 13 20 4 182 7155
151 0 13 20 5 181 7154
152 0 13 20 3 181 7151
153 0 13 20 2 181 7153
154 2 14 68 113 49 -1
155 0 14 70 116 48 7226
156 0 14 69 117 47 7223
157 0 14 69 118 46 7218
158 0 14 69 116 49 7224
159 0 14 68 115 48 7220
160 0 14 68 117 49 7222
161 0 14 67 118 49 7225
162 0 14 67 118 48 7217
163 0 14 67 117 48 7219
164 0 14 66 116 47 7221
165 2 15 150 150 5 -1
166 0 15 150 148 3 8086
167 0 15 151 147 4 8088
168 0 15 151 148 4 8090
169 0 15 150 149 3 -1
170 0 15 150 149 2 8092
171 0 15 150 148 1 8093
172 0 15 149 149 0 8091
173 0 15 148 148 0 8095
174 0 15 150 147 2 8087
175 0 15 149 147 1 8094
176 2 16 30 163 135 -1
177 0 16 33 166 135 -1
178 0 16 34 165 135 6484
179 0 16 35 165 136 6481
180 0 16 34 167 136 6483
181 0 16 35 167 137 6480
182 0 16 35 164 136 6486
183 0 16 36 165 135 6482
184 0 16 37 164 135 6489
185 0 16 36 163 135 6488
186 0 16 35 163 135 6487
187 2 17 97 112 94 -1
188 0 17 98 109 97 5593
189 0 17 99 110 97 7307
190 0 17 99 111 96 7306
191 0 17 99 109 98 7309
192 0 17 99 109 99 9443
193 0 17 96 110 97 5589
194 0 17 96 109 97 5591
195 0 17 97 110 98 7308
196 0 17 95 109 97 5598
197 0 17 94 108 96 -1
198 2 18 21 62 57 -1
199 0 18 20 65 60 -1
200 0 18 21 64 60 -1
201 0 18 21 64 59 -1
202 0 18 19 65 61 -1
203 0 18 20 64 61 -1
204 0 18 20 59 60 -1
205 0 18 21 58 59 -1
206 0 18 20 57 58 -1
207 0 18 19 59 59 -1
208 0 18 18 58 59 -1
209 2 19 10 11 135 -1
210 0 19 12 8 137 10354
211 0 19 13 7 138 10356
212 0 19 13 7 139 10355
213 0 19 13 8 137 -1
214 0 19 12 8 138 10352
215 0 19 6 10 138 10358
216 0 19 7 11 138 10357
217 0 19 7 11 139 10360
218 0 19 5 11 138 10361
219 0 19 6 12 138 10359
220 2 20 66 152 105 -1
221 0 20 64 154 108 9656
222 0 20 65 153 107 9654
223 0 20 65 154 106 9655
224 0 20 63 154 107 9653
225 0 20 62 154 106 9648
226 0 20 61 153 106 9649
227 0 20 60 152 105 -1
228 0 20 61 152 106 9652
229 0 20 60 154 107 -1
230 0 20 60 153 108 -1
231 2 21 127 32 40 -1
232 0 21 126 28 42 6888
233 0 21 126 27 42 -1
234 0 21 127 28 41 6889
235 0 21 127 27 42 6890
236 0 21 128 27 42 6887
237 0 21 129 29 40 -1
238 0 21 130 28 41 -1
239 0 21 131 27 40 10686
240 0 21 130 28 40 6891
241 0 21 131 28 39 10684
242 2 22 92 113 101 -1
243 0 22 91 111 99 6931
244 0 22 90 111 100 6939
245 0 22 91 110 100 6937
246 0 22 91 111 98 6935
247 0 22 91 111 97 -1
248 0 22 93 108 101 -1
249 0 22 92 108 100 -1
250 0 22 92 109 99 6236
251 0 22 92 107 100 6232
252 0 22 91 108 99 6235
253 2 23 10 51 22 -1
254 0 23 13 50 25 5987
255 0 23 12 51 25 5985
256 0 23 11 50 26 5986
257 0 23 13 51 24 5988
258 0 23 14 50 23 5989
259 0 23 13 54 24 5991
260 0 23 12 55 25 5992
261 0 23 11 54 25 5994
262 0 23 12 54 24 5993
263 0 23 13 55 25 -1
264 2 24 25 99 181 -1
265 0 24 24 101 179 8164
266 0 24 23 101 180 8166
267 0 24 22 100 179 8165
268 0 24 24 102 180 8163
269 0 24 24 103 179 8167
270 0 24 23 103 181 8171
271 0 24 23 104 180 8172
272 0 24 24 105 180 8168
273 0 24 23 102 182 -1
274 0 24 22 102 181 8170
275 2 25 117 197 74 -1
276 0 25 115 199 76 -1
277 0 25 116 0 77 10693
278 0 25 117 199 76 10697
279 0 25 116 198 77 10695
280 0 25 115 197 77 10696
281 0 25 117 196 79 10698
282 0 25 117 195 79 -1
283 0 25 118 194 80 -1
284 0 25 116 197 78 10699
285 0 25 117 196 77 10701
286 2 26 90 103 181 -1
287 0 26 88 100 181 5616
288 0 26 87 101 181 5611
289 0 26 87 100 182 5618
290 0 26 88 101 182 -1
291 0 26 89 100 182 5619
292 0 26 86 103 182 5612
293 0 26 87 104 181 5613
294 0 26 88 105 182 -1
295 0 26 87 103 181 5615
296 0 26 86 102 181 -1
297 2 27 69 24 1 -1
298 0 27 73 25 0 7269
299 0 27 74 24 199 7265
300 0 27 74 24 0 7261
301 0 27 72 24 199 7264
302 0 27 72 23 0 7263
303 0 27 70 25 199 7267
304 0 27 70 26 0 7266
305 0 27 71 25 0 7270
306 0 27 70 26 198 7268
307 0 27 71 27 198 -1
308 2 28 103 95 91 -1
309 0 28 107 92 91 9157
310 0 28 107 93 90 7332
311 0 28 106 92 90 7335
312 0 28 107 91 91 9154
313 0 28 107 92 92 9155
314 0 28 103 92 89 -1
315 0 28 103 92 88 -1
316 0 28 102 91 87 -1
317 0 28 104 92 89 7331
318 0 28 104 92 90 -1
319 2 29 163 111 73 -1
320 0 29 165 108 75 10974
321 0 29 164 109 75 9744
322 0 29 165 109 76 10975
323 0 29 164 107 74 9745
324 0 29 164 107 75 10976
325 0 29 164 108 74 10977
326 0 29 163 108 74 9741
327 0 29 164 108 73 9742
328 0 29 165 109 73 -1
329 0 29 165 109 72 10968
330 2 30 94 130 107 -1
331 0 30 96 127 105 9939
332 0 30 97 126 105 9942
333 0 30 97 126 106 9943
334 0 30 97 126 104 -1
335 0 30 96 127 104 9940
336 0 30 95 127 104 9941
337 0 30 94 127 105 9934
338 0 30 94 128 105 9935
339 0 30 94 126 104 9938
340 0 30 93 126 105 9936
341 2 31 59 89 182 -1
342 0 31 62 90 182 10203
343 0 31 62 91 183 10204
344 0 31 63 92 183 10205
345 0 31 62 91 181 10206
346 0 31 63 90 181 10207
347 0 31 62 90 186 -1
348 0 31 63 91 186 10199
349 0 31 62 92 187 10198
350 0 31 61 91 185 10200
351 0 31 60 90 186 -1
352 2 32 5 174 91 -1
353 0 32 4 176 91 6004
354 0 32 5 177 90 5997
355 0 32 6 177 90 5998
356 0 32 3 177 91 5996
357 0 32 2 178 91 6005
358 0 32 3 177 88 6002
359 0 32 4 178 88 5999
360 0 32 3 177 87 6000
361 0 32 3 176 89 6001
362 0 32 4 175 89 -1
363 2 33 8 195 72 -1
364 0 33 7 197 71 10518
365 0 33 7 198 70 5867
366 0 33 7 197 69 9121
367 0 33 6 198 70 -1
368 0 33 7 197 70 9124
369 0 33 11 198 74 9128
370 0 33 10 198 73 9125
371 0 33 11 199 74 9129
372 0 33 11 197 75 -1
373 0 33 12 198 76 10525
374 2 34 81 172 46 -1
375 0 34 81 172 48 6564
376 0 34 82 173 49 6566
377 0 34 82 173 50 6562
378 0 34 82 171 48 6558
379 0 34 83 172 48 6563
380 0 34 79 171 50 -1
381 0 34 78 170 49 -1
382 0 34 79 169 49 -1
383 0 34 80 170 50 -1
384 0 34 81 169 50 6560
385 2 35 25 111 80 -1
386 0 35 30 110 81 9857
387 0 35 31 109 82 9860
388 0 35 31 110 83 -1
389 0 35 30 111 81 9859
390 0 35 31 110 82 9858
391 0 35 27 109 84 9863
392 0 35 26 109 83 9866
393 0 35 25 108 83 9864
394 0 35 28 109 85 -1
395 0 35 29 108 86 9862
396 2 36 193 122 2 -1
397 0 36 190 122 4 9485
398 0 36 190 121 4 -1
399 0 36 191 120 3 9490
400 0 36 189 121 3 9483
401 0 36 189 120 2 9484
402 0 36 191 118 3 -1
403 0 36 192 119 2 9488
404 0 36 193 119 1 9492
405 0 36 190 118 2 9489
406 0 36 190 117 2 -1
407 2 37 186 127 104 -1
408 0 37 187 131 104 9290
409 0 37 186 131 104 -1
410 0 37 187 132 103 9292
411 0 37 188 130 104 9291
412 0 37 187 129 103 9294
413 0 37 188 130 101 9285
414 0 37 187 129 101 -1
415 0 37 187 128 101 9289
416 0 37 189 129 100 -1
417 0 37 190 128 101 9286
418 2 38 175 59 113 -1
419 0 38 179 56 113 10979
420 0 38 178 56 113 -1
421 0 38 177 57 114 10982
422 0 38 179 57 112 10983
423 0 38 178 56 112 10988
424 0 38 179 58 114 10980
425 0 38 178 59 113 10981
426 0 38 177 58 114 10987
427 0 38 180 58 113 10986
428 0 38 179 59 113 10984
429 2 39 172 113 172 -1
430 0 39 171 115 176 -1
431 0 39 171 116 175 8641
432 0 39 170 115 175 8640
433 0 39 171 114 177 -1
434 0 39 170 113 178 -1
435 0 39 170 113 175 8643
436 0 39 170 112 176 8638
437 0 39 171 113 176 8636
438 0 39 170 114 174 8644
439 0 39 169 115 174 8645
440 2 40 131 49 61 -1
441 0 40 129 53 62 9598
442 0 40 130 53 62 9599
443 0 40 131 52 63 -1
444 0 40 130 54 61 9602
445 0 40 129 54 62 9600
446 0 40 135 51 59 6546
447 0 40 136 52 60 9338
448 0 40 136 51 61 9332
449 0 40 135 50 58 -1
450 0 40 135 51 57 6551
451 2 41 169 20 12 -1
452 0 41 172 20 10 -1
453 0 41 171 19 9 6574
454 0 41 171 20 9 6577
455 0 41 172 19 10 6576
456 0 41 173 19 9 6572
457 0 41 171 18 12 6575
458 0 41 171 17 11 -1
459 0 41 170 17 12 -1
460 0 41 172 17 12 6573
461 0 41 172 16 13 6569
462 2 42 107 87 93 -1
463 0 42 106 90 90 -1
464 0 42 106 89 90 9160
465 0 42 106 88 90 9162
466 0 42 105 89 91 9159
467 0 42 106 88 91 9161
468 0 42 105 86 94 10927
469 0 42 104 86 95 10924
470 0 42 105 87 94 -1
471 0 42 104 85 93 10925
472 0 42 103 85 93 -1
473 2 43 3 138 92 -1
474 0 43 5 142 92 7874
475 0 43 5 142 93 7875
476 0 43 4 142 94 7869
477 0 43 6 142 93 -1
478 0 43 7 141 94 7872
479 0 43 5 140 94 -1
480 0 43 6 141 95 7868
481 0 43 5 141 94 7871
482 0 43 4 140 94 -1
483 0 43 3 139 94 -1
484 2 44 11 143 93 -1
485 0 44 14 143 91 9428
486 0 44 15 143 90 9432
487 0 44 16 142 90 9431
488 0 44 14 142 92 9430
489 0 44 15 141 91 -1
490 0 44 6 142 94 -1
491 0 44 6 143 95 -1
492 0 44 6 142 96 -1
493 0 44 7 141 93 7867
494 0 44 7 140 93 7866
495 2 45 14 36 43 -1
496 0 45 15 33 41 9641
497 0 45 14 34 42 9639
498 0 45 14 34 41 -1
499 0 45 16 34 41 9642
500 0 45 17 33 40 9644
501 0 45 16 32 41 9645
502 0 45 17 32 42 9646
503 0 45 18 31 43 -1
504 0 45 16 33 41 9640
505 0 45 15 34 41 9637
506 2 46 33 45 129 -1
507 0 46 32 42 125 7987
508 0 46 32 41 126 -1
509 0 46 31 42 127 7989
510 0 46 32 43 126 7994
511 0 46 33 42 125 -1
512 0 46 32 44 124 7992
513 0 46 31 45 123 -1
514 0 46 31 44 123 7995
515 0 46 33 43 123 7990
516 0 46 32 42 122 7991
517 2 47 64 17 27 -1
518 0 47 60 19 25 9672
519 0 47 61 20 24 -1
520 0 47 61 21 25 9670
521 0 47 59 20 26 9677
522 0 47 60 20 27 9676
523 0 47 62 19 27 9679
524 0 47 61 19 26 9673
525 0 47 60 20 25 9671
526 0 47 62 20 28 -1
527 0 47 62 21 27 -1
528 2 48 62 59 198 -1
529 0 48 59 60 197 10496
530 0 48 58 60 197 10497
531 0 48 57 59 196 10498
532 0 48 58 59 196 10495
533 0 48 57 60 197 10504
534 0 48 59 62 0 10500
535 0 48 58 63 199 10501
536 0 48 59 63 199 -1
537 0 48 59 61 0 -1
538 0 48 59 60 0 10502
539 2 49 150 98 72 -1
540 0 49 152 101 74 6011
541 0 49 151 102 74 6009
542 0 49 150 103 75 6010
543 0 49 151 102 73 6007
544 0 49 152 103 72 6012
545 0 49 153 101 73 6014
546 0 49 152 101 72 6013
547 0 49 152 102 71 6016
548 0 49 154 101 72 -1
549 0 49 155 102 71 -1
550 2 50 145 8 187 -1
551 0 50 147 8 189 9557
552 0 50 148 9 190 -1
553 0 50 147 9 189 9553
554 0 50 148 7 188 -1
555 0 50 149 7 187 -1
556 0 50 145 9 190 9549
557 0 50 146 8 191 9551
558 0 50 147 8 190 9552
559 0 50 146 8 190 9550
560 0 50 147 7 189 9554
561 2 51 97 105 101 -1
562 0 51 98 106 98 6950
563 0 51 97 107 98 5592
564 0 51 97 107 99 6951
565 0 51 98 105 98 6948
566 0 51 98 106 97 9440
567 0 51 98 105 96 6217
568 0 51 99 105 97 6947
569 0 51 98 106 96 9439
570 0 51 99 106 95 6216
571 0 51 98 107 95 6219
572 2 52 14 36 118 -1
573 0 52 11 34 117 8128
574 0 52 11 34 118 8127
575 0 52 11 35 119 8124
576 0 52 12 33 117 8122
577 0 52 11 33 118 8119
578 0 52 12 33 119 -1
579 0 52 12 32 118 -1
580 0 52 12 32 119 8121
581 0 52 11 34 119 -1
582 0 52 12 33 120 8125
583 2 53 187 152 13 -1
584 0 53 187 148 14 -1
585 0 53 187 149 15 -1
586 0 53 188 148 15 -1
587 0 53 187 148 13 -1
588 0 53 186 149 14 -1
589 0 53 190 152 17 6788
590 0 53 189 151 17 6790
591 0 53 190 150 18 6791
592 0 53 189 152 18 6789
593 0 53 190 151 18 6792
594 2 54 169 111 73 -1
595 0 54 167 112 70 10972
596 0 54 166 113 69 -1
597 0 54 167 112 68 -1
598 0 54 168 111 70 9736
599 0 54 169 110 71 9737
600 0 54 167 109 71 9739
601 0 54 167 109 70 10970
602 0 54 168 108 70 -1
603 0 54 166 109 70 10969
604 0 54 167 110 69 9738
605 2 55 155 179 97 -1
606 0 55 155 183 100 9843
607 0 55 156 183 100 9835
608 0 55 156 184 99 9844
609 0 55 154 183 100 9842
610 0 55 154 183 99 9840
611 0 55 155 182 100 -1
612 0 55 156 181 101 9841
613 0 55 156 182 101 9839
614 0 55 154 182 101 -1
615 0 55 154 182 102 9836
616 2 56 197 47 123 -1
617 0 56 193 49 121 6167
618 0 56 193 48 122 7794
619 0 56 194 47 121 6169
620 0 56 192 50 122 7798
621 0 56 193 51 122 7797
622 0 56 196 48 120 10892
623 0 56 195 49 121 7795
624 0 56 194 49 122 7796
625 0 56 195 47 119 -1
626 0 56 195 46 119 5983
627 2 57 179 148 5 -1
628 0 57 181 148 9 -1
629 0 57 181 148 10 7839
630 0 57 180 149 11 7833
631 0 57 182 149 8 7841
632 0 57 181 150 7 7840
633 0 57 179 148 10 -1
634 0 57 179 148 11 7835
635 0 57 179 147 10 7834
636 0 57 180 147 10 7837
637 0 57 181 148 11 7842
638 2 58 12 188 39 -1
639 0 58 16 185 38 7897
640 0 58 16 185 37 -1
641 0 58 17 184 36 -1
642 0 58 15 184 38 -1
643 0 58 16 184 37 -1
644 0 58 15 187 42 7889
645 0 58 16 188 43 7890
646 0 58 17 189 42 7892
647 0 58 15 188 41 7891
648 0 58 15 187 40 7894
649 2 59 192 194 76 -1
650 0 59 193 193 78 8771
651 0 59 193 194 78 8768
652 0 59 192 195 79 8772
653 0 59 194 192 77 8770
654 0 59 193 191 78 10308
655 0 59 196 193 79 8776
656 0 59 197 194 80 8773
657 0 59 196 195 79 8777
658 0 59 195 193 78 8774
659 0 59 194 194 77 8769
660 2 60 88 105 98 -1
661 0 60 87 105 102 6228
662 0 60 86 105 103 6229
663 0 60 86 104 103 7102
664 0 60 88 106 102 -1
665 0 60 88 105 102 -1
666 0 60 89 109 99 6932
667 0 60 90 109 100 6933
668 0 60 90 110 101 6936
669 0 60 89 110 99 6934
670 0 60 88 109 100 -1
671 2 61 158 121 176 -1
672 0 61 154 120 178 8681
673 0 61 153 119 178 8680
674 0 61 154 118 179 -1
675 0 61 154 119 178 8684
676 0 61 154 118 178 8682
677 0 61 157 118 180 8685
678 0 61 156 118 181 -1
679 0 61 156 119 181 -1
680 0 61 156 118 179 8688
681 0 61 157 117 179 8687
682 2 62 195 194 89 -1
683 0 62 192 192 90 10754
684 0 62 192 192 91 10756
685 0 62 192 191 90 7885
686 0 62 192 191 91 7882
687 0 62 191 192 91 10753
688 0 62 194 192 87 10314
689 0 62 194 193 87 10313
690 0 62 194 192 88 10315
691 0 62 194 191 87 10316
692 0 62 195 191 88 10317
693 2 63 81 92 100 -1
694 0 63 85 92 99 10827
695 0 63 85 91 98 6643
696 0 63 86 91 98 10830
697 0 63 86 93 99 10826
698 0 63 85 94 98 10829
699 0 63 82 97 99 5608
700 0 63 83 98 98 10627
701 0 63 83 99 98 5609
702 0 63 83 97 100 9912
703 0 63 82 98 100 -1
704 2 64 154 136 16 -1
705 0 64 153 132 17 8729
706 0 64 152 131 16 8731
707 0 64 152 131 15 -1
708 0 64 154 132 16 8730
709 0 64 155 133 17 -1
710 0 64 150 134 16 8732
711 0 64 149 133 16 -1
712 0 64 150 133 15 -1
713 0 64 151 135 16 8733
714 0 64 150 136 15 -1
715 2 65 148 92 172 -1
716 0 65 144 92 174 6613
717 0 65 143 91 174 6615
718 0 65 142 90 175 -1
719 0 65 144 93 175 6612
720 0 65 144 93 174 6616
721 0 65 147 92 175 6621
722 0 65 147 93 175 -1
723 0 65 146 92 174 6614
724 0 65 147 91 176 6620
725 0 65 146 91 175 -1
726 2 66 71 48 116 -1
727 0 66 69 46 112 -1
728 0 66 68 46 113 7299
729 0 66 69 46 114 7303
730 0 66 68 46 112 7300
731 0 66 67 45 112 7301
732 0 66 75 50 115 7297
733 0 66 74 51 115 7298
734 0 66 73 51 115 -1
735 0 66 74 50 115 7294
736 0 66 73 49 114 7295
737 2 67 137 96 152 -1
738 0 67 138 101 153 9238
739 0 67 137 100 153 -1
740 0 67 136 101 153 -1
741 0 67 138 100 152 9236
742 0 67 139 100 152 9235
743 0 67 140 100 151 9231
744 0 67 141 101 152 9230
745 0 67 140 100 152 9232
746 0 67 140 100 150 9233
747 0 67 139 99 151 9237
748 2 68 107 103 45 -1
749 0 68 110 103 43 -1
750 0 68 110 103 44 10715
751 0 68 111 103 43 10717
752 0 68 110 104 43 10716
753 0 68 109 105 43 10718
754 0 68 103 103 45 10722
755 0 68 102 103 45 10723
756 0 68 103 104 45 10724
757 0 68 102 104 45 -1
758 0 68 102 105 46 10720
759 2 69 131 39 109 -1
760 0 69 131 41 105 7031
761 0 69 131 40 106 7035
762 0 69 132 40 107 7030
763 0 69 130 41 105 7036
764 0 69 129 40 105 7039
765 0 69 133 39 106 7033
766 0 69 132 40 106 7038
767 0 69 132 41 105 7037
768 0 69 134 40 107 7034
769 0 69 134 39 106 -1
770 2 70 132 52 54 -1
771 0 70 130 55 57 9595
772 0 70 131 55 56 9594
773 0 70 131 54 55 9596
774 0 70 131 54 56 -1
775 0 70 132 55 55 9593
776 0 70 132 52 49 -1
777 0 70 133 51 48 -1
778 0 70 133 52 47 10084
779 0 70 131 52 49 -1
780 0 70 130 53 48 10083
781 2 71 148 47 194 -1
782 0 71 151 46 193 -1
783 0 71 150 45 193 10883
784 0 71 150 46 193 -1
785 0 71 152 46 192 -1
786 0 71 151 46 191 10884
787 0 71 148 43 193 10888
788 0 71 149 44 192 10880
789 0 71 150 44 193 10886
790 0 71 148 44 194 10887
791 0 71 148 44 195 10889
792 2 72 179 103 31 -1
793 0 72 174 102 32 -1
794 0 72 174 102 31 -1
795 0 72 175 102 31 -1
796 0 72 175 103 33 -1
797 0 72 174 103 32 -1
798 0 72 176 101 28 -1
799 0 72 177 101 28 -1
800 0 72 176 101 27 -1
801 0 72 175 102 27 -1
802 0 72 176 102 26 -1
803 2 73 95 92 94 -1
804 0 73 97 96 95 8614
805 0 73 98 96 94 -1
806 0 73 98 95 93 10953
807 0 73 98 96 96 -1
808 0 73 98 96 97 8623
809 0 73 99 95 94 -1
810 0 73 99 94 94 8622
811 0 73 100 95 95 7016
812 0 73 98 95 95 -1
813 0 73 99 94 96 8620
814 2 74 101 95 88 -1
815 0 74 102 96 84 6159
816 0 74 103 96 83 6157
817 0 74 104 96 84 6158
818 0 74 101 97 85 10646
819 0 74 100 97 85 10639
820 0 74 101 100 87 6650
821 0 74 102 99 87 10647
822 0 74 101 99 87 10641
823 0 74 101 101 88 10642
824 0 74 102 100 87 6654
825 2 75 5 194 151 -1
826 0 75 6 191 152 -1
827 0 75 5 191 153 6273
828 0 75 5 192 154 6272
829 0 75 5 192 152 6274
830 0 75 6 193 153 6271
831 0 75 6 195 153 -1
832 0 75 5 195 153 -1
833 0 75 6 195 154 6277
834 0 75 7 194 154 6279
835 0 75 6 194 154 6278
836 2 76 64 176 60 -1
837 0 76 68 178 62 6695
838 0 76 67 178 62 6697
839 0 76 67 177 63 6689
840 0 76 69 179 63 6698
841 0 76 70 179 63 6696
842 0 76 67 179 63 6694
843 0 76 66 178 63 6691
844 0 76 67 179 62 6692
845 0 76 67 178 64 -1
846 0 76 68 177 63 -1
847 2 77 101 94 92 -1
848 0 77 101 92 88 -1
849 0 77 102 91 89 -1
850 0 77 103 90 90 -1
851 0 77 100 91 89 7328
852 0 77 101 92 90 7327
853 0 77 99 98 94 7017
854 0 77 99 99 94 8616
855 0 77 98 98 95 -1
856 0 77 100 97 95 7013
857 0 77 101 96 94 -1
858 2 78 124 26 39 -1
859 0 78 120 24 41 -1
860 0 78 120 25 40 6893
861 0 78 121 26 41 -1
862 0 78 119 25 41 -1
863 0 78 120 26 42 6894
864 0 78 122 25 40 -1
865 0 78 123 24 39 -1
866 0 78 124 23 38 -1
867 0 78 122 26 39 6896
868 0 78 122 27 40 6895
869 2 79 91 101 98 -1
870 0 79 87 99 98 5964
871 0 79 87 98 99 -1
872 0 79 86 99 98 7998
873 0 79 87 98 98 8007
874 0 79 86 97 99 8005
875 0 79 95 101 95 10950
876 0 79 96 100 96 9410
877 0 79 95 100 95 -1
878 0 79 94 101 96 10949
879 0 79 93 100 96 10946
880 2 80 23 42 104 -1
881 0 80 23 41 101 6473
882 0 80 23 40 102 -1
883 0 80 23 39 102 -1
884 0 80 24 41 100 6469
885 0 80 25 40 100 -1
886 0 80 21 40 108 6477
887 0 80 22 39 107 6475
888 0 80 23 39 107 6476
889 0 80 22 40 109 -1
890 0 80 23 40 109 6474
891 2 81 187 52 71 -1
892 0 81 190 49 71 10821
893 0 81 190 48 72 -1
894 0 81 190 49 73 10820
895 0 81 189 50 70 10817
896 0 81 188 50 69 -1
897 0 81 190 49 69 10816
898 0 81 189 48 70 10822
899 0 81 189 49 71 10819
900 0 81 190 49 68 10818
901 0 81 189 50 67 -1
902 2 82 95 105 103 -1
903 0 82 98 101 104 6944
904 0 82 97 102 103 6942
905 0 82 96 102 104 6943
906 0 82 98 102 104 -1
907 0 82 97 103 104 6945
908 0 82 95 104 107 10003
909 0 82 96 104 107 10004
910 0 82 95 104 108 10001
911 0 82 95 103 108 -1
912 0 82 95 103 109 10002
913 2 83 103 167 1 -1
914 0 83 100 168 2 6965
915 0 83 99 169 3 6964
916 0 83 100 169 4 -1
917 0 83 100 169 1 10401
918 0 83 99 169 0 10405
919 0 83 99 170 1 6968
920 0 83 100 171 1 10404
921 0 83 100 170 1 10402
922 0 83 98 169 1 6967
923 0 83 99 168 1 6966
924 2 84 52 121 119 -1
925 0 84 54 125 118 -1
926 0 84 53 125 117 -1
927 0 84 52 124 116 -1
928 0 84 55 124 119 -1
929 0 84 54 125 120 -1
930 0 84 51 122 115 -1
931 0 84 50 123 116 -1
932 0 84 49 123 115 -1
933 0 84 52 123 116 -1
934 0 84 52 122 116 -1
935 2 85 120 162 73 -1
936 0 85 119 161 69 10390
937 0 85 119 161 68 -1
938 0 85 119 160 69 10393
939 0 85 118 160 70 10394
940 0 85 117 160 70 10391
941 0 85 119 159 70 10392
942 0 85 120 158 71 -1
943 0 85 121 158 70 -1
944 0 85 118 158 71 10386
945 0 85 117 158 72 10385
946 2 86 192 130 31 -1
947 0 86 194 128 30 -1
948 0 86 194 127 30 9478
949 0 86 193 128 29 9472
950 0 86 195 129 29 9479
951 0 86 195 130 29 9481
952 0 86 192 129 27 9475
953 0 86 192 128 28 9476
954 0 86 191 128 27 9473
955 0 86 192 128 26 -1
956 0 86 193 129 26 -1
957 2 87 47 58 144 -1
958 0 87 46 55 144 -1
959 0 87 46 55 143 10048
960 0 87 45 56 144 10046
961 0 87 45 54 145 10045
962 0 87 45 55 146 10044
963 0 87 51 60 144 10049
964 0 87 51 61 143 10053
965 0 87 52 61 144 10050
966 0 87 52 61 143 10051
967 0 87 53 60 144 -1
968 2 88 7 138 71 -1
969 0 88 2 139 72 5741
970 0 88 2 140 72 5738
971 0 88 3 139 73 5740
972 0 88 3 138 72 5739
973 0 88 3 138 71 5732
974 0 88 4 138 73 5737
975 0 88 5 138 72 5733
976 0 88 5 139 73 -1
977 0 88 5 138 74 5736
978 0 88 5 138 73 5735
979 2 89 151 181 23 -1
980 0 89 156 181 24 10383
981 0 89 155 182 23 10381
982 0 89 155 183 23 -1
983 0 89 157 181 24 -1
984 0 89 156 181 23 10380
985 0 89 156 180 24 10379
986 0 89 155 180 25 -1
987 0 89 154 181 25 10382
988 0 89 157 179 23 -1
989 0 89 156 178 22 -1
990 2 90 2 119 151 -1
991 0 90 199 118 153 10454
992 0 90 198 118 154 -1
993 0 90 198 117 155 -1
994 0 90 0 119 154 10460
995 0 90 1 118 153 10451
996 0 90 0 116 151 8665
997 0 90 1 117 150 10452
998 0 90 1 116 151 10458
999 0 90 1 115 152 8667
1000 0 90 2 114 151 8664
1001 2 91 28 194 6 -1
1002 0 91 30 195 8 5520
1003 0 91 31 196 8 5521
1004 0 91 30 196 8 5517
1005 0 91 31 194 9 -1
1006 0 91 31 193 8 5513
1007 0 91 30 191 8 -1
1008 0 91 31 192 8 5512
1009 0 91 31 193 9 5514
1010 0 91 29 191 8 -1
1011 0 91 28 191 7 -1
1012 2 92 175 72 85 -1
1013 0 92 179 71 84 6597
1014 0 92 179 71 85 6595
1015 0 92 180 70 84 6599
1016 0 92 180 72 85 -1
1017 0 92 181 72 84 6598
1018 0 92 179 73 85 6596
1019 0 92 179 72 86 6594
1020 0 92 178 72 87 6590
1021 0 92 180 74 85 6592
1022 0 92 179 75 85 6593
1023 2 93 148 88 104 -1
1024 0 93 144 88 105 -1
1025 0 93 144 89 106 6307
1026 0 93 143 88 105 -1
1027 0 93 145 87 105 6304
1028 0 93 145 88 104 -1
1029 0 93 145 91 105 6311
1030 0 93 144 91 105 6313
1031 0 93 143 90 104 6309
1032 0 93 145 90 104 -1
1033 0 93 144 89 105 6310
1034 2 94 172 98 64 -1
1035 0 94 173 96 68 6881
1036 0 94 174 96 67 -1
1037 0 94 173 95 66 -1
1038 0 94 172 97 67 6884
1039 0 94 172 97 66 6880
1040 0 94 169 97 66 6878
1041 0 94 170 97 67 6879
1042 0 94 170 96 66 6876
1043 0 94 170 98 66 6883
1044 0 94 169 97 67 6877
1045 2 95 160 133 103 -1
1046 0 95 158 130 104 9984
1047 0 95 159 131 103 -1
1048 0 95 159 130 104 9987
1049 0 95 157 129 104 9986
1050 0 95 157 130 104 9985
1051 0 95 160 130 103 6843
1052 0 95 161 130 104 6846
1053 0 95 161 129 103 6844
1054 0 95 160 129 104 -1
1055 0 95 160 129 105 6845
1056 2 96 117 161 110 -1
1057 0 96 121 160 112 9705
1058 0 96 121 160 113 9708
1059 0 96 121 161 112 9710
1060 0 96 121 159 111 9703
1061 0 96 120 160 110 9704
1062 0 96 118 160 113 -1
1063 0 96 117 159 113 -1
1064 0 96 118 158 112 9707
1065 0 96 117 160 114 -1
1066 0 96 118 159 114 -1
1067 2 97 154 111 170 -1
1068 0 97 157 112 167 -1
1069 0 97 158 113 168 7608
1070 0 97 159 114 168 -1
1071 0 97 157 113 167 -1
1072 0 97 157 114 167 7609
1073 0 97 153 115 170 7602
1074 0 97 152 114 171 7605
1075 0 97 152 115 171 7606
1076 0 97 154 115 170 -1
1077 0 97 154 114 169 7603
1078 2 98 87 96 72 -1
1079 0 98 90 96 72 7352
1080 0 98 91 95 73 7357
1081 0 98 92 96 72 7353
1082 0 98 91 95 72 -1
1083 0 98 91 96 73 7349
1084 0 98 89 95 74 7358
1085 0 98 90 94 73 7351
1086 0 98 91 93 73 -1
1087 0 98 89 95 75 7356
1088 0 98 90 94 76 -1
1089 2 99 8 52 126 -1
1090 0 99 6 54 128 10177
1091 0 99 5 53 128 10182
1092 0 99 4 54 127 10178
1093 0 99 7 54 127 10181
1094 0 99 6 53 127 10183
1095 0 99 5 56 126 -1
1096 0 99 4 55 127 10176
1097 0 99 5 56 128 10179
1098 0 99 6 55 126 10180
1099 0 99 5 55 127 10184
1100 2 100 70 25 105 -1
1101 0 100 73 22 103 7955
1102 0 100 72 22 102 -1
1103 0 100 71 21 101 -1
1104 0 100 73 23 104 7956
1105 0 100 73 22 104 7954
1106 0 100 71 24 101 7962
1107 0 100 70 24 100 -1
1108 0 100 69 25 100 7963
1109 0 100 70 23 100 7959
1110 0 100 70 23 99 -1
1111 2 101 70 101 86 -1
1112 0 101 68 101 88 10491
1113 0 101 67 100 89 10488
1114 0 101 67 101 88 -1
1115 0 101 68 102 87 -1
1116 0 101 68 102 86 -1
1117 0 101 67 98 89 10487
1118 0 101 68 97 90 -1
1119 0 101 68 97 89 10484
1120 0 101 68 99 88 10493
1121 0 101 69 98 88 10485
1122 2 102 124 162 122 -1
1123 0 102 125 163 118 7464
1124 0 102 124 164 118 7465
1125 0 102 125 165 118 7466
1126 0 102 126 164 117 7461
1127 0 102 126 165 118 7459
1128 0 102 126 163 118 7468
1129 0 102 127 163 118 7463
1130 0 102 128 163 119 -1
1131 0 102 126 163 117 7462
1132 0 102 127 162 117 -1
1133 2 103 12 97 26 -1
1134 0 103 11 94 22 10661
1135 0 103 12 93 22 10669
1136 0 103 11 93 22 -1
1137 0 103 10 93 22 10660
1138 0 103 10 92 22 -1
1139 0 103 13 95 24 10667
1140 0 103 12 94 24 10663
1141 0 103 11 95 24 10668
1142 0 103 12 94 25 10664
1143 0 103 13 95 25 10665
1144 2 104 31 92 110 -1
1145 0 104 33 89 109 6778
1146 0 104 33 89 108 6786
1147 0 104 33 90 108 6781
1148 0 104 32 89 110 6777
1149 0 104 31 90 109 -1
1150 0 104 33 90 110 -1
1151 0 104 33 90 109 6780
1152 0 104 34 89 110 6785
1153 0 104 32 90 111 6784
1154 0 104 31 90 111 -1
1155 2 105 86 92 95 -1
1156 0 105 84 94 99 5972
1157 0 105 85 95 100 5690
1158 0 105 86 96 100 -1
1159 0 105 84 93 100 10825
1160 0 105 85 92 101 -1
1161 0 105 85 90 98 -1
1162 0 105 85 89 97 10833
1163 0 105 84 90 96 6642
1164 0 105 84 90 99 -1
1165 0 105 85 91 99 7730
1166 2 106 2 89 79 -1
1167 0 106 3 93 77 6020
1168 0 106 2 92 78 6018
1169 0 106 2 91 77 6021
1170 0 106 4 92 77 -1
1171 0 106 4 93 78 -1
1172 0 106 0 91 78 6026
1173 0 106 199 91 77 6023
1174 0 106 0 90 78 6022
1175 0 106 199 90 79 6025
1176 0 106 0 89 80 6024
1177 2 107 7 34 79 -1
1178 0 107 9 32 77 7083
1179 0 107 8 33 77 7079
1180 0 107 9 34 77 -1
1181 0 107 9 33 76 7080
1182 0 107 10 33 77 7081
1183 0 107 9 30 79 -1
1184 0 107 9 29 78 -1
1185 0 107 8 30 77 -1
1186 0 107 8 31 78 7082
1187 0 107 9 31 77 -1
1188 2 108 151 104 165 -1
1189 0 108 149 108 164 8820
1190 0 108 150 107 164 8821
1191 0 108 151 106 164 -1
1192 0 108 148 107 164 8819
1193 0 108 149 107 165 -1
1194 0 108 152 103 162 8816
1195 0 108 152 104 162 8812
1196 0 108 153 104 161 -1
1197 0 108 151 104 162 8813
1198 0 108 152 105 161 8814
1199 2 109 33 165 87 -1
1200 0 109 34 161 84 -1
1201 0 109 35 161 85 9534
1202 0 109 36 161 85 -1
1203 0 109 33 162 83 -1
1204 0 109 34 162 83 9533
1205 0 109 33 165 84 8989
1206 0 109 33 165 83 -1
1207 0 109 34 165 84 9532
1208 0 109 32 164 84 -1
1209 0 109 33 163 84 9535
1210 2 110 194 50 113 -1
1211 0 110 192 47 112 9630
1212 0 110 193 46 113 -1
1213 0 110 194 47 114 9633
1214 0 110 191 47 113 9626
1215 0 110 190 46 113 9628
1216 0 110 196 51 116 -1
1217 0 110 195 50 117 10893
1218 0 110 195 49 116 5977
1219 0 110 196 50 115 5978
1220 0 110 195 51 115 5976
1221 2 111 51 184 86 -1
1222 0 111 47 186 87 7581
1223 0 111 46 185 87 7582
1224 0 111 47 184 88 7580
1225 0 111 48 186 87 7586
1226 0 111 48 185 86 7585
1227 0 111 47 183 88 -1
1228 0 111 47 182 87 7583
1229 0 111 46 183 86 7584
1230 0 111 47 183 89 7589
1231 0 111 48 184 88 7587
1232 2 112 138 55 58 -1
1233 0 112 139 52 60 -1
1234 0 112 139 51 59 -1
1235 0 112 138 50 59 9330
1236 0 112 139 51 60 9337
1237 0 112 138 51 59 9329
1238 0 112 136 51 58 6547
1239 0 112 137 50 57 -1
1240 0 112 138 51 58 -1
1241 0 112 137 51 59 6554
1242 0 112 137 52 58 6555
1243 2 113 184 139 161 -1
1244 0 113 183 143 162 7591
1245 0 113 183 144 161 -1
1246 0 113 183 145 162 7593
1247 0 113 184 142 163 7592
1248 0 113 183 142 162 7594
1249 0 113 185 141 164 7600
1250 0 113 184 142 165 7595