LAMMPS Description

11000	atoms
20000	bonds
0	angles
0	dihedrals
0	impropers

6	atom types
1	bond types
0	angle types

0 200 xlo xhi
0 200 ylo yhi
0 200 zlo zhi

Masses

1	1.0
2	1.0
3	1.0
4	1.0
5	1.0
6	1.0

Atoms

0 0 2 0.0 29 7 155
1 0 0 0.0 26 4 152
2 0 0 0.0 25 4 153
3 0 0 0.0 26 3 152
4 0 0 0.0 25 5 153
5 0 0 0.0 26 6 152
6 0 0 0.0 29 6 152
7 0 0 0.0 30 6 153
8 0 0 0.0 29 7 152
9 0 0 0.0 30 6 152
10 0 0 0.0 31 5 153
11 1 2 0.0 182 159 126
12 1 0 0.0 179 158 123
13 1 0 0.0 180 159 124
14 1 0 0.0 181 158 123
15 1 0 0.0 180 158 124
16 1 0 0.0 179 158 124
17 1 0 0.0 180 160 123
18 1 0 0.0 179 159 122
19 1 0 0.0 179 159 121
20 1 0 0.0 180 161 122
21 1 0 0.0 180 161 123
22 2 2 0.0 85 79 74
23 2 0 0.0 84 78 76
24 2 0 0.0 84 79 77
25 2 0 0.0 84 80 77
26 2 0 0.0 84 78 75
27 2 0 0.0 83 79 76
28 2 0 0.0 82 82 74
29 2 0 0.0 81 81 73
30 2 0 0.0 82 80 74
31 2 0 0.0 82 83 75
32 2 0 0.0 81 82 74
33 3 2 0.0 119 190 148
34 3 0 0.0 117 191 149
35 3 0 0.0 116 191 148
36 3 0 0.0 115 191 149
37 3 0 0.0 117 191 150
38 3 0 0.0 118 191 149
39 3 0 0.0 116 192 149
40 3 0 0.0 115 192 149
41 3 0 0.0 115 191 150
42 3 0 0.0 116 192 148
43 3 0 0.0 115 192 148
44 4 2 0.0 19 191 177
45 4 0 0.0 16 188 174
46 4 0 0.0 16 187 174
47 4 0 0.0 15 188 174
48 4 0 0.0 17 188 175
49 4 0 0.0 17 188 176
50 4 0 0.0 18 192 178
51 4 0 0.0 19 191 179
52 4 0 0.0 19 192 180
53 4 0 0.0 18 191 177
54 4 0 0.0 18 192 177
55 5 2 0.0 67 69 178
56 5 0 0.0 70 70 177
57 5 0 0.0 70 71 178
58 5 0 0.0 69 72 178
59 5 0 0.0 71 70 176
60 5 0 0.0 72 69 175
61 5 0 0.0 70 69 178
62 5 0 0.0 69 69 178
63 5 0 0.0 70 68 178
64 5 0 0.0 69 70 178
65 5 0 0.0 70 71 177
66 6 2 0.0 18 4 116
67 6 0 0.0 19 5 118
68 6 0 0.0 20 4 119
69 6 0 0.0 19 4 118
70 6 0 0.0 18 5 117
71 6 0 0.0 18 6 116
72 6 0 0.0 15 6 119
73 6 0 0.0 16 7 118
74 6 0 0.0 17 6 118
75 6 0 0.0 16 6 118
76 6 0 0.0 15 5 119
77 7 2 0.0 86 142 101
78 7 0 0.0 83 145 100
79 7 0 0.0 82 146 100
80 7 0 0.0 81 145 99
81 7 0 0.0 84 144 100
82 7 0 0.0 84 145 100
83 7 0 0.0 87 141 101
84 7 0 0.0 86 141 100
85 7 0 0.0 87 140 100
86 7 0 0.0 86 142 100
87 7 0 0.0 86 141 99
88 8 2 0.0 122 71 50
89 8 0 0.0 124 72 52
90 8 0 0.0 125 71 51
91 8 0 0.0 125 72 50
92 8 0 0.0 123 71 51
93 8 0 0.0 124 71 50
94 8 0 0.0 121 73 47
95 8 0 0.0 120 73 48
96 8 0 0.0 121 73 48
97 8 0 0.0 121 72 47
98 8 0 0.0 122 71 47
99 9 2 0.0 55 43 36
100 9 0 0.0 56 41 37
101 9 0 0.0 56 42 38
102 9 0 0.0 56 41 38
103 9 0 0.0 57 40 36
104 9 0 0.0 58 39 37
105 9 0 0.0 54 43 37
106 9 0 0.0 55 43 38
107 9 0 0.0 56 44 39
108 9 0 0.0 53 44 36
109 9 0 0.0 53 45 37
110 10 2 0.0 47 196 181
111 10 0 0.0 46 193 183
112 10 0 0.0 46 192 182
113 10 0 0.0 47 192 182
114 10 0 0.0 46 194 182
115 10 0 0.0 46 194 181
116 10 0 0.0 50 197 179
117 10 0 0.0 50 197 180
118 10 0 0.0 51 196 179
119 10 0 0.0 51 197 178
120 10 0 0.0 51 197 179
121 11 2 0.0 129 92 195
122 11 0 0.0 128 95 198
123 11 0 0.0 129 95 198
124 11 0 0.0 128 96 199
125 11 0 0.0 127 95 199
126 11 0 0.0 127 96 198
127 11 0 0.0 130 93 198
128 11 0 0.0 130 93 197
129 11 0 0.0 131 93 198
130 11 0 0.0 131 94 198
131 11 0 0.0 132 95 199
132 12 2 0.0 57 22 64
133 12 0 0.0 56 25 65
134 12 0 0.0 56 26 66
135 12 0 0.0 56 27 67
136 12 0 0.0 56 25 66
137 12 0 0.0 56 26 65
138 12 0 0.0 58 23 67
139 12 0 0.0 58 24 66
140 12 0 0.0 57 25 67
141 12 0 0.0 58 22 68
142 12 0 0.0 57 23 67
143 13 2 0.0 125 98 30
144 13 0 0.0 127 100 32
145 13 0 0.0 126 100 33
146 13 0 0.0 125 100 33
147 13 0 0.0 127 99 33
148 13 0 0.0 127 99 34
149 13 0 0.0 124 97 28
150 13 0 0.0 125 98 29
151 13 0 0.0 125 97 29
152 13 0 0.0 124 98 28
153 13 0 0.0 125 99 27
154 14 2 0.0 62 108 105
155 14 0 0.0 64 106 103
156 14 0 0.0 63 105 104
157 14 0 0.0 64 106 105
158 14 0 0.0 63 106 102
159 14 0 0.0 62 105 103
160 14 0 0.0 63 110 104
161 14 0 0.0 62 110 105
162 14 0 0.0 63 109 104
163 14 0 0.0 64 111 104
164 14 0 0.0 64 112 105
165 15 2 0.0 115 180 114
166 15 0 0.0 117 178 116
167 15 0 0.0 116 179 116
168 15 0 0.0 116 180 116
169 15 0 0.0 118 178 117
170 15 0 0.0 118 177 116
171 15 0 0.0 118 179 115
172 15 0 0.0 119 180 115
173 15 0 0.0 118 181 114
174 15 0 0.0 119 178 115
175 15 0 0.0 120 177 116
176 16 2 0.0 53 85 134
177 16 0 0.0 53 88 133
178 16 0 0.0 52 89 132
179 16 0 0.0 51 88 133
180 16 0 0.0 52 87 134
181 16 0 0.0 53 88 134
182 16 0 0.0 54 84 131
183 16 0 0.0 53 85 131
184 16 0 0.0 53 84 130
185 16 0 0.0 53 83 131
186 16 0 0.0 52 84 131
187 17 2 0.0 69 168 0
188 17 0 0.0 69 166 198
189 17 0 0.0 68 167 198
190 17 0 0.0 68 168 198
191 17 0 0.0 70 167 198
192 17 0 0.0 70 166 198
193 17 0 0.0 69 167 199
194 17 0 0.0 70 166 199
195 17 0 0.0 71 166 199
196 17 0 0.0 70 167 199
197 17 0 0.0 70 168 0
198 18 2 0.0 59 187 74
199 18 0 0.0 59 187 71
200 18 0 0.0 58 186 71
201 18 0 0.0 58 186 72
202 18 0 0.0 60 188 71
203 18 0 0.0 61 187 72
204 18 0 0.0 59 188 72
205 18 0 0.0 59 187 73
206 18 0 0.0 60 188 72
207 18 0 0.0 58 189 72
208 18 0 0.0 58 188 73
209 19 2 0.0 69 34 113
210 19 0 0.0 72 32 112
211 19 0 0.0 71 32 112
212 19 0 0.0 72 32 111
213 19 0 0.0 71 33 113
214 19 0 0.0 72 32 113
215 19 0 0.0 66 32 112
216 19 0 0.0 66 33 112
217 19 0 0.0 67 34 111
218 19 0 0.0 66 32 111
219 19 0 0.0 67 32 110
220 20 2 0.0 60 80 180
221 20 0 0.0 63 82 183
222 20 0 0.0 62 81 182
223 20 0 0.0 61 81 183
224 20 0 0.0 63 82 184
225 20 0 0.0 62 81 185
226 20 0 0.0 57 78 177
227 20 0 0.0 58 79 176
228 20 0 0.0 58 79 175
229 20 0 0.0 58 77 177
230 20 0 0.0 57 76 176
231 21 2 0.0 71 159 21
232 21 0 0.0 74 157 23
233 21 0 0.0 73 156 23
234 21 0 0.0 72 156 23
235 21 0 0.0 73 158 23
236 21 0 0.0 73 157 22
237 21 0 0.0 70 158 19
238 21 0 0.0 69 157 18
239 21 0 0.0 69 156 17
240 21 0 0.0 71 159 18
241 21 0 0.0 71 159 19
242 22 2 0.0 151 64 26
243 22 0 0.0 152 61 26
244 22 0 0.0 152 62 25
245 22 0 0.0 153 61 24
246 22 0 0.0 151 62 27
247 22 0 0.0 150 63 27
248 22 0 0.0 153 63 29
249 22 0 0.0 152 63 29
250 22 0 0.0 152 63 28
251 22 0 0.0 153 64 29
252 22 0 0.0 153 65 30
253 23 2 0.0 63 16 76
254 23 0 0.0 60 17 76
255 23 0 0.0 61 16 77
256 23 0 0.0 62 16 76
257 23 0 0.0 61 16 76
258 23 0 0.0 60 16 77
259 23 0 0.0 66 17 73
260 23 0 0.0 67 17 74
261 23 0 0.0 67 17 73
262 23 0 0.0 65 18 72
263 23 0 0.0 66 18 71
264 24 2 0.0 140 51 62
265 24 0 0.0 140 53 59
266 24 0 0.0 139 54 60
267 24 0 0.0 138 53 61
268 24 0 0.0 139 54 59
269 24 0 0.0 138 53 58
270 24 0 0.0 139 53 60
271 24 0 0.0 139 52 60
272 24 0 0.0 138 52 61
273 24 0 0.0 140 54 59
274 24 0 0.0 140 55 60
275 25 2 0.0 29 6 56
276 25 0 0.0 31 5 55
277 25 0 0.0 32 5 56
278 25 0 0.0 32 6 57
279 25 0 0.0 32 6 56
280 25 0 0.0 33 7 55
281 25 0 0.0 30 4 56
282 25 0 0.0 29 4 57
283 25 0 0.0 29 5 58
284 25 0 0.0 30 3 56
285 25 0 0.0 30 3 55
286 26 2 0.0 2 122 55
287 26 0 0.0 2 124 53
288 26 0 0.0 1 124 52
289 26 0 0.0 1 124 53
290 26 0 0.0 2 124 54
291 26 0 0.0 3 123 55
292 26 0 0.0 1 121 57
293 26 0 0.0 0 122 56
294 26 0 0.0 1 123 56
295 26 0 0.0 2 121 56
296 26 0 0.0 3 120 56
297 27 2 0.0 140 175 151
298 27 0 0.0 143 175 152
299 27 0 0.0 142 176 151
300 27 0 0.0 141 175 151
301 27 0 0.0 143 174 151
302 27 0 0.0 142 175 151
303 27 0 0.0 139 174 153
304 27 0 0.0 139 174 154
305 27 0 0.0 140 175 154
306 27 0 0.0 138 173 154
307 27 0 0.0 137 174 155
308 28 2 0.0 137 119 123
309 28 0 0.0 140 122 121
310 28 0 0.0 140 122 122
311 28 0 0.0 141 122 121
312 28 0 0.0 139 123 121
313 28 0 0.0 138 122 122
314 28 0 0.0 134 122 123
315 28 0 0.0 134 121 124
316 28 0 0.0 134 121 125
317 28 0 0.0 133 121 124
318 28 0 0.0 133 122 123
319 29 2 0.0 16 122 175
320 29 0 0.0 13 123 174
321 29 0 0.0 12 122 174
322 29 0 0.0 11 121 174
323 29 0 0.0 14 122 174
324 29 0 0.0 15 123 173
325 29 0 0.0 17 122 172
326 29 0 0.0 18 123 171
327 29 0 0.0 19 122 172
328 29 0 0.0 18 123 173
329 29 0 0.0 17 123 172
330 30 2 0.0 50 190 168
331 30 0 0.0 51 190 169
332 30 0 0.0 52 190 170
333 30 0 0.0 53 190 171
334 30 0 0.0 51 190 170
335 30 0 0.0 52 189 170
336 30 0 0.0 50 190 169
337 30 0 0.0 51 191 170
338 30 0 0.0 51 192 169
339 30 0 0.0 51 191 168
340 30 0 0.0 51 191 169
341 31 2 0.0 34 168 43
342 31 0 0.0 36 170 41
343 31 0 0.0 35 169 42
344 31 0 0.0 35 168 42
345 31 0 0.0 37 169 40
346 31 0 0.0 38 169 41
347 31 0 0.0 35 165 43
348 31 0 0.0 36 165 43
349 31 0 0.0 35 164 42
350 31 0 0.0 34 166 42
351 31 0 0.0 34 166 41
352 32 2 0.0 114 47 81
353 32 0 0.0 114 45 84
354 32 0 0.0 113 44 84
355 32 0 0.0 113 44 85
356 32 0 0.0 115 46 83
357 32 0 0.0 114 46 82
358 32 0 0.0 113 48 84
359 32 0 0.0 114 49 83
360 32 0 0.0 113 49 82
361 32 0 0.0 114 47 85
362 32 0 0.0 114 47 84
363 33 2 0.0 25 186 84
364 33 0 0.0 26 188 85
365 33 0 0.0 27 189 86
366 33 0 0.0 26 189 85
367 33 0 0.0 25 187 85
368 33 0 0.0 26 187 84
369 33 0 0.0 26 183 81
370 33 0 0.0 26 184 80
371 33 0 0.0 27 184 79
372 33 0 0.0 27 182 82
373 33 0 0.0 28 181 81
374 34 2 0.0 27 102 80
375 34 0 0.0 29 99 77
376 34 0 0.0 29 99 78
377 34 0 0.0 28 98 79
378 34 0 0.0 30 98 77
379 34 0 0.0 29 98 78
380 34 0 0.0 30 102 78
381 34 0 0.0 30 102 77
382 34 0 0.0 31 101 78
383 34 0 0.0 29 101 79
384 34 0 0.0 28 100 79
385 35 2 0.0 133 176 101
386 35 0 0.0 135 175 101
387 35 0 0.0 135 176 102
388 35 0 0.0 134 176 103
389 35 0 0.0 134 176 100
390 35 0 0.0 133 175 100
391 35 0 0.0 130 173 99
392 35 0 0.0 130 174 100
393 35 0 0.0 130 175 99
394 35 0 0.0 129 174 98
395 35 0 0.0 130 174 99
396 36 2 0.0 169 165 45
397 36 0 0.0 170 163 43
398 36 0 0.0 171 163 43
399 36 0 0.0 172 164 42
400 36 0 0.0 171 163 42
401 36 0 0.0 170 162 41
402 36 0 0.0 171 162 42
403 36 0 0.0 170 161 41
404 36 0 0.0 171 162 40
405 36 0 0.0 172 161 42
406 36 0 0.0 173 160 43
407 37 2 0.0 73 152 40
408 37 0 0.0 70 149 40
409 37 0 0.0 71 149 39
410 37 0 0.0 71 148 38
411 37 0 0.0 70 150 39
412 37 0 0.0 69 149 40
413 37 0 0.0 74 155 40
414 37 0 0.0 75 156 41
415 37 0 0.0 75 155 41
416 37 0 0.0 74 156 39
417 37 0 0.0 75 155 38
418 38 2 0.0 51 63 39
419 38 0 0.0 50 66 38
420 38 0 0.0 50 66 37
421 38 0 0.0 51 66 38
422 38 0 0.0 51 65 38
423 38 0 0.0 52 64 38
424 38 0 0.0 49 61 37
425 38 0 0.0 50 60 37
426 38 0 0.0 51 61 38
427 38 0 0.0 50 61 37
428 38 0 0.0 49 60 38
429 39 2 0.0 180 39 148
430 39 0 0.0 182 42 149
431 39 0 0.0 181 41 150
432 39 0 0.0 181 42 151
433 39 0 0.0 183 41 149
434 39 0 0.0 182 40 150
435 39 0 0.0 181 38 148
436 39 0 0.0 182 37 148
437 39 0 0.0 182 38 149
438 39 0 0.0 181 37 148
439 39 0 0.0 180 36 147
440 40 2 0.0 77 34 179
441 40 0 0.0 78 32 181
442 40 0 0.0 78 32 182
443 40 0 0.0 78 32 183
444 40 0 0.0 79 31 180
445 40 0 0.0 78 32 180
446 40 0 0.0 80 37 180
447 40 0 0.0 80 36 180
448 40 0 0.0 79 35 181
449 40 0 0.0 81 37 180
450 40 0 0.0 81 38 179
451 41 2 0.0 57 112 30
452 41 0 0.0 55 110 33
453 41 0 0.0 54 111 34
454 41 0 0.0 55 111 33
455 41 0 0.0 56 111 34
456 41 0 0.0 55 112 35
457 41 0 0.0 58 114 30
458 41 0 0.0 58 114 31
459 41 0 0.0 59 114 32
460 41 0 0.0 57 115 29
461 41 0 0.0 56 116 28
462 42 2 0.0 18 143 54
463 42 0 0.0 16 140 51
464 42 0 0.0 16 141 52
465 42 0 0.0 17 141 51
466 42 0 0.0 17 141 50
467 42 0 0.0 18 141 49
468 42 0 0.0 17 141 52
469 42 0 0.0 16 141 53
470 42 0 0.0 15 141 54
471 42 0 0.0 18 142 52
472 42 0 0.0 19 143 51
473 43 2 0.0 147 88 28
474 43 0 0.0 146 88 29
475 43 0 0.0 145 87 30
476 43 0 0.0 144 87 30
477 43 0 0.0 146 87 29
478 43 0 0.0 146 88 28
479 43 0 0.0 144 87 27
480 43 0 0.0 144 86 26
481 43 0 0.0 143 86 25
482 43 0 0.0 143 87 26
483 43 0 0.0 143 86 26
484 44 2 0.0 25 139 8
485 44 0 0.0 27 142 7
486 44 0 0.0 28 141 8
487 44 0 0.0 29 142 8
488 44 0 0.0 27 141 7
489 44 0 0.0 26 141 8
490 44 0 0.0 22 139 10
491 44 0 0.0 21 139 10
492 44 0 0.0 21 139 9
493 44 0 0.0 22 138 11
494 44 0 0.0 21 139 11
495 45 2 0.0 32 174 115
496 45 0 0.0 32 171 115
497 45 0 0.0 31 171 115
498 45 0 0.0 30 172 116
499 45 0 0.0 33 171 115
500 45 0 0.0 32 170 116
501 45 0 0.0 35 172 118
502 45 0 0.0 35 173 119
503 45 0 0.0 36 173 120
504 45 0 0.0 34 171 118
505 45 0 0.0 33 172 119
506 46 2 0.0 179 147 40
507 46 0 0.0 182 145 41
508 46 0 0.0 183 144 40
509 46 0 0.0 182 145 39
510 46 0 0.0 181 145 40
511 46 0 0.0 182 144 41
512 46 0 0.0 180 150 39
513 46 0 0.0 181 151 38
514 46 0 0.0 180 152 38
515 46 0 0.0 179 151 39
516 46 0 0.0 179 152 40
517 47 2 0.0 128 58 117
518 47 0 0.0 126 60 116
519 47 0 0.0 126 61 115
520 47 0 0.0 126 62 114
521 47 0 0.0 126 61 116
522 47 0 0.0 127 60 117
523 47 0 0.0 126 59 117
524 47 0 0.0 126 59 118
525 47 0 0.0 127 58 119
526 47 0 0.0 125 60 118
527 47 0 0.0 126 60 119
528 48 2 0.0 191 94 161
529 48 0 0.0 190 92 159
530 48 0 0.0 191 93 159
531 48 0 0.0 192 92 159
532 48 0 0.0 190 92 158
533 48 0 0.0 189 91 157
534 48 0 0.0 193 91 161
535 48 0 0.0 194 90 162
536 48 0 0.0 195 91 162
537 48 0 0.0 194 90 160
538 48 0 0.0 194 89 159
539 49 2 0.0 151 188 132
540 49 0 0.0 153 191 133
541 49 0 0.0 152 191 132
542 49 0 0.0 153 190 133
543 49 0 0.0 153 190 134
544 49 0 0.0 154 190 133
545 49 0 0.0 149 186 135
546 49 0 0.0 150 186 134
547 49 0 0.0 150 187 134
548 49 0 0.0 148 185 134
549 49 0 0.0 149 184 133
550 50 2 0.0 125 113 168
551 50 0 0.0 124 110 165
552 50 0 0.0 125 110 165
553 50 0 0.0 124 111 166
554 50 0 0.0 124 111 164
555 50 0 0.0 124 112 163
556 50 0 0.0 123 116 171
557 50 0 0.0 124 115 170
558 50 0 0.0 125 115 171
559 50 0 0.0 122 116 172
560 50 0 0.0 121 117 173
561 51 2 0.0 97 23 42
562 51 0 0.0 94 25 42
563 51 0 0.0 94 24 42
564 51 0 0.0 95 25 42
565 51 0 0.0 95 24 42
566 51 0 0.0 96 25 42
567 51 0 0.0 100 26 43
568 51 0 0.0 101 27 42
569 51 0 0.0 102 28 41
570 51 0 0.0 99 26 42
571 51 0 0.0 98 26 41
572 52 2 0.0 152 195 15
573 52 0 0.0 154 196 14
574 52 0 0.0 153 195 14
575 52 0 0.0 152 196 15
576 52 0 0.0 155 195 13
577 52 0 0.0 156 194 14
578 52 0 0.0 151 197 14
579 52 0 0.0 152 196 13
580 52 0 0.0 151 195 14
581 52 0 0.0 150 196 13
582 52 0 0.0 149 195 13
583 53 2 0.0 82 81 51
584 53 0 0.0 82 81 53
585 53 0 0.0 83 80 53
586 53 0 0.0 82 79 54
587 53 0 0.0 81 81 53
588 53 0 0.0 82 80 54
589 53 0 0.0 84 81 49
590 53 0 0.0 84 82 49
591 53 0 0.0 85 81 49
592 53 0 0.0 84 81 48
593 53 0 0.0 83 80 49
594 54 2 0.0 25 96 44
595 54 0 0.0 26 98 47
596 54 0 0.0 25 99 46
597 54 0 0.0 24 99 46
598 54 0 0.0 27 97 48
599 54 0 0.0 27 96 48
600 54 0 0.0 26 94 42
601 54 0 0.0 25 94 43
602 54 0 0.0 24 95 43
603 54 0 0.0 26 95 42
604 54 0 0.0 27 96 42
605 55 2 0.0 109 29 151
606 55 0 0.0 107 28 148
607 55 0 0.0 107 28 147
608 55 0 0.0 108 28 147
609 55 0 0.0 106 27 149
610 55 0 0.0 107 26 148
611 55 0 0.0 109 26 153
612 55 0 0.0 108 26 152
613 55 0 0.0 108 27 153
614 55 0 0.0 108 25 154
615 55 0 0.0 108 24 155
616 56 2 0.0 107 28 0
617 56 0 0.0 105 25 1
618 56 0 0.0 105 24 0
619 56 0 0.0 106 23 199
620 56 0 0.0 104 24 2
621 56 0 0.0 103 24 2
622 56 0 0.0 106 27 197
623 56 0 0.0 105 28 198
624 56 0 0.0 104 27 199
625 56 0 0.0 106 27 198
626 56 0 0.0 105 26 198
627 57 2 0.0 69 52 152
628 57 0 0.0 67 51 152
629 57 0 0.0 67 51 153
630 57 0 0.0 67 52 152
631 57 0 0.0 67 51 151
632 57 0 0.0 68 50 152
633 57 0 0.0 66 49 155
634 57 0 0.0 65 49 155
635 57 0 0.0 66 48 154
636 57 0 0.0 67 50 156
637 57 0 0.0 66 50 157
638 58 2 0.0 9 93 150
639 58 0 0.0 9 92 148
640 58 0 0.0 8 92 148
641 58 0 0.0 9 91 149
642 58 0 0.0 10 93 148
643 58 0 0.0 10 92 147
644 58 0 0.0 6 94 152
645 58 0 0.0 5 93 151
646 58 0 0.0 4 93 150
647 58 0 0.0 5 93 152
648 58 0 0.0 6 92 151
649 59 2 0.0 52 140 41
650 59 0 0.0 52 139 43
651 59 0 0.0 52 139 42
652 59 0 0.0 52 138 42
653 59 0 0.0 53 139 42
654 59 0 0.0 53 139 43
655 59 0 0.0 50 142 40
656 59 0 0.0 49 142 40
657 59 0 0.0 48 142 41
658 59 0 0.0 51 141 41
659 59 0 0.0 52 142 40
660 60 2 0.0 53 88 75
661 60 0 0.0 55 89 76
662 60 0 0.0 55 90 75
663 60 0 0.0 54 90 75
664 60 0 0.0 54 88 75
665 60 0 0.0 53 89 74
666 60 0 0.0 55 85 75
667 60 0 0.0 56 86 75
668 60 0 0.0 56 87 74
669 60 0 0.0 56 86 76
670 60 0 0.0 57 85 77
671 61 2 0.0 9 126 25
672 61 0 0.0 6 127 27
673 61 0 0.0 5 128 26
674 61 0 0.0 6 128 27
675 61 0 0.0 5 128 28
676 61 0 0.0 6 127 29
677 61 0 0.0 9 127 28
678 61 0 0.0 9 126 28
679 61 0 0.0 9 126 27
680 61 0 0.0 10 127 29
681 61 0 0.0 10 126 28
682 62 2 0.0 186 128 93
683 62 0 0.0 187 128 93
684 62 0 0.0 186 127 93
685 62 0 0.0 187 128 94
686 62 0 0.0 186 127 94
687 62 0 0.0 187 126 95
688 62 0 0.0 189 129 96
689 62 0 0.0 190 128 96
690 62 0 0.0 189 129 97
691 62 0 0.0 190 130 97
692 62 0 0.0 191 129 98
693 63 2 0.0 48 101 96
694 63 0 0.0 46 102 96
695 63 0 0.0 46 103 95
696 63 0 0.0 45 104 96
697 63 0 0.0 45 103 96
698 63 0 0.0 46 104 96
699 63 0 0.0 50 101 98
700 63 0 0.0 50 100 98
701 63 0 0.0 51 101 98
702 63 0 0.0 49 100 98
703 63 0 0.0 50 101 99
704 64 2 0.0 146 184 144
705 64 0 0.0 143 187 142
706 64 0 0.0 144 187 143
707 64 0 0.0 143 188 143
708 64 0 0.0 143 186 142
709 64 0 0.0 144 186 142
710 64 0 0.0 146 187 144
711 64 0 0.0 146 188 144
712 64 0 0.0 147 188 143
713 64 0 0.0 145 188 144
714 64 0 0.0 146 189 143
715 65 2 0.0 77 95 49
716 65 0 0.0 79 92 48
717 65 0 0.0 80 92 48
718 65 0 0.0 80 93 48
719 65 0 0.0 80 93 49
720 65 0 0.0 79 93 48
721 65 0 0.0 76 92 47
722 65 0 0.0 77 92 48
723 65 0 0.0 76 93 48
724 65 0 0.0 77 91 47
725 65 0 0.0 76 92 46
726 66 2 0.0 82 49 55
727 66 0 0.0 85 48 55
728 66 0 0.0 85 49 56
729 66 0 0.0 84 48 55
730 66 0 0.0 86 47 55
731 66 0 0.0 87 47 56
732 66 0 0.0 82 46 55
733 66 0 0.0 83 46 54
734 66 0 0.0 84 47 53
735 66 0 0.0 82 47 54
736 66 0 0.0 81 48 54
737 67 2 0.0 77 31 8
738 67 0 0.0 74 30 9
739 67 0 0.0 75 30 9
740 67 0 0.0 75 29 8
741 67 0 0.0 73 29 9
742 67 0 0.0 72 30 10
743 67 0 0.0 75 28 7
744 67 0 0.0 75 27 7
745 67 0 0.0 76 27 6
746 67 0 0.0 76 29 7
747 67 0 0.0 77 28 6
748 68 2 0.0 118 88 55
749 68 0 0.0 120 91 53
750 68 0 0.0 119 92 53
751 68 0 0.0 119 91 54
752 68 0 0.0 121 90 54
753 68 0 0.0 122 91 54
754 68 0 0.0 117 91 53
755 68 0 0.0 116 90 54
756 68 0 0.0 115 89 53
757 68 0 0.0 118 90 53
758 68 0 0.0 118 90 54
759 69 2 0.0 174 186 107
760 69 0 0.0 173 185 109
761 69 0 0.0 172 186 109
762 69 0 0.0 171 187 110
763 69 0 0.0 172 184 110
764 69 0 0.0 173 183 109
765 69 0 0.0 174 183 107
766 69 0 0.0 174 182 107
767 69 0 0.0 174 181 106
768 69 0 0.0 173 183 108
769 69 0 0.0 173 184 109
770 70 2 0.0 134 135 53
771 70 0 0.0 133 132 52
772 70 0 0.0 134 133 52
773 70 0 0.0 134 134 53
774 70 0 0.0 133 131 51
775 70 0 0.0 132 132 50
776 70 0 0.0 137 133 55
777 70 0 0.0 137 132 56
778 70 0 0.0 138 133 56
779 70 0 0.0 137 133 56
780 70 0 0.0 138 133 57
781 71 2 0.0 37 98 150
782 71 0 0.0 34 100 149
783 71 0 0.0 35 99 149
784 71 0 0.0 36 100 148
785 71 0 0.0 34 99 148
786 71 0 0.0 34 99 149
787 71 0 0.0 37 95 147
788 71 0 0.0 36 95 147
789 71 0 0.0 36 94 148
790 71 0 0.0 38 94 146
791 71 0 0.0 37 93 145
792 72 2 0.0 2 39 59
793 72 0 0.0 4 42 60
794 72 0 0.0 5 41 61
795 72 0 0.0 4 42 61
796 72 0 0.0 3 43 59
797 72 0 0.0 2 44 60
798 72 0 0.0 2 37 56
799 72 0 0.0 2 38 55
800 72 0 0.0 1 38 56
801 72 0 0.0 3 36 56
802 72 0 0.0 2 36 55
803 73 2 0.0 159 11 159
804 73 0 0.0 157 12 160
805 73 0 0.0 156 13 160
806 73 0 0.0 155 13 159
807 73 0 0.0 157 11 159
808 73 0 0.0 156 10 158
809 73 0 0.0 157 14 157
810 73 0 0.0 157 14 156
811 73 0 0.0 158 14 157
812 73 0 0.0 156 14 156
813 73 0 0.0 155 14 157
814 74 2 0.0 94 150 107
815 74 0 0.0 91 153 109
816 74 0 0.0 92 154 108
817 74 0 0.0 92 154 109
818 74 0 0.0 90 154 109
819 74 0 0.0 91 153 108
820 74 0 0.0 91 152 109
821 74 0 0.0 90 151 109
822 74 0 0.0 89 150 109
823 74 0 0.0 90 151 110
824 74 0 0.0 89 152 110
825 75 2 0.0 171 14 30
826 75 0 0.0 172 16 31
827 75 0 0.0 171 15 30
828 75 0 0.0 171 16 30
829 75 0 0.0 173 15 31
830 75 0 0.0 174 14 32
831 75 0 0.0 169 11 30
832 75 0 0.0 168 11 31
833 75 0 0.0 167 12 30
834 75 0 0.0 169 12 29
835 75 0 0.0 168 12 28
836 76 2 0.0 16 176 108
837 76 0 0.0 19 178 110
838 76 0 0.0 20 179 111
839 76 0 0.0 19 180 111
840 76 0 0.0 19 178 109
841 76 0 0.0 18 177 109
842 76 0 0.0 14 178 105
843 76 0 0.0 13 178 104
844 76 0 0.0 14 179 105
845 76 0 0.0 13 179 105
846 76 0 0.0 14 179 106
847 77 2 0.0 174 74 44
848 77 0 0.0 172 77 44
849 77 0 0.0 172 76 43
850 77 0 0.0 172 77 43
851 77 0 0.0 171 77 43
852 77 0 0.0 170 76 42
853 77 0 0.0 175 75 43
854 77 0 0.0 176 76 43
855 77 0 0.0 176 76 44
856 77 0 0.0 176 76 42
857 77 0 0.0 176 75 43
858 78 2 0.0 176 116 104
859 78 0 0.0 176 119 106
860 78 0 0.0 177 120 107
861 78 0 0.0 178 120 106
862 78 0 0.0 175 120 106
863 78 0 0.0 175 121 106
864 78 0 0.0 177 118 107
865 78 0 0.0 177 119 106
866 78 0 0.0 178 118 107
867 78 0 0.0 178 118 108
868 78 0 0.0 179 119 109
869 79 2 0.0 41 21 155
870 79 0 0.0 38 22 152
871 79 0 0.0 37 21 153
872 79 0 0.0 37 21 152
873 79 0 0.0 38 23 152
874 79 0 0.0 39 24 151
875 79 0 0.0 38 23 156
876 79 0 0.0 37 24 156
877 79 0 0.0 38 25 157
878 79 0 0.0 39 24 157
879 79 0 0.0 39 25 157
880 80 2 0.0 141 55 132
881 80 0 0.0 143 56 135
882 80 0 0.0 143 55 135
883 80 0 0.0 143 55 134
884 80 0 0.0 142 56 134
885 80 0 0.0 143 56 133
886 80 0 0.0 141 54 134
887 80 0 0.0 141 54 133
888 80 0 0.0 140 55 132
889 80 0 0.0 141 53 133
890 80 0 0.0 140 52 132
891 81 2 0.0 12 122 160
892 81 0 0.0 11 123 158
893 81 0 0.0 12 122 158
894 81 0 0.0 13 122 159
895 81 0 0.0 10 124 157
896 81 0 0.0 11 123 156
897 81 0 0.0 10 121 161
898 81 0 0.0 10 122 162
899 81 0 0.0 11 121 163
900 81 0 0.0 10 120 162
901 81 0 0.0 9 119 162
902 82 2 0.0 88 84 114
903 82 0 0.0 91 85 113
904 82 0 0.0 92 85 113
905 82 0 0.0 91 84 113
906 82 0 0.0 90 84 113
907 82 0 0.0 89 84 113
908 82 0 0.0 88 85 115
909 82 0 0.0 87 86 116
910 82 0 0.0 86 85 116
911 82 0 0.0 89 86 116
912 82 0 0.0 89 87 115
913 83 2 0.0 162 49 163
914 83 0 0.0 159 48 166
915 83 0 0.0 160 47 166
916 83 0 0.0 161 48 165
917 83 0 0.0 158 47 167
918 83 0 0.0 158 46 167
919 83 0 0.0 163 50 161
920 83 0 0.0 162 50 161
921 83 0 0.0 163 50 162
922 83 0 0.0 163 51 161
923 83 0 0.0 163 51 162
924 84 2 0.0 187 88 185
925 84 0 0.0 190 91 183
926 84 0 0.0 191 90 182
927 84 0 0.0 191 91 182
928 84 0 0.0 189 92 182
929 84 0 0.0 188 92 183
930 84 0 0.0 186 88 185
931 84 0 0.0 187 89 184
932 84 0 0.0 186 89 184
933 84 0 0.0 186 89 186
934 84 0 0.0 185 90 186
935 85 2 0.0 11 140 134
936 85 0 0.0 12 142 136
937 85 0 0.0 13 143 137
938 85 0 0.0 14 144 136
939 85 0 0.0 12 143 136
940 85 0 0.0 11 144 135
941 85 0 0.0 8 138 136
942 85 0 0.0 8 137 135
943 85 0 0.0 9 137 135
944 85 0 0.0 7 138 136
945 85 0 0.0 6 139 135
946 86 2 0.0 78 147 70
947 86 0 0.0 80 150 70
948 86 0 0.0 79 151 71
949 86 0 0.0 78 150 72
950 86 0 0.0 81 149 71
951 86 0 0.0 81 150 70
952 86 0 0.0 79 146 67
953 86 0 0.0 79 147 67
954 86 0 0.0 80 147 68
955 86 0 0.0 78 145 66
956 86 0 0.0 79 146 66
957 87 2 0.0 131 178 107
958 87 0 0.0 128 180 109
959 87 0 0.0 129 181 110
960 87 0 0.0 129 181 111
961 87 0 0.0 129 179 108
962 87 0 0.0 129 178 107
963 87 0 0.0 134 180 110
964 87 0 0.0 135 179 110
965 87 0 0.0 136 178 110
966 87 0 0.0 135 180 111
967 87 0 0.0 135 179 112
968 88 2 0.0 87 111 151
969 88 0 0.0 85 111 148
970 88 0 0.0 85 110 148
971 88 0 0.0 86 110 149
972 88 0 0.0 84 112 149
973 88 0 0.0 83 113 148
974 88 0 0.0 85 111 152
975 88 0 0.0 85 112 152
976 88 0 0.0 84 112 152
977 88 0 0.0 86 112 151
978 88 0 0.0 87 113 151
979 89 2 0.0 139 34 51
980 89 0 0.0 140 33 52
981 89 0 0.0 141 33 51
982 89 0 0.0 142 33 52
983 89 0 0.0 140 33 53
984 89 0 0.0 141 32 54
985 89 0 0.0 138 36 51
986 89 0 0.0 139 35 50
987 89 0 0.0 138 35 51
988 89 0 0.0 137 36 52
989 89 0 0.0 138 35 52
990 90 2 0.0 179 25 95
991 90 0 0.0 182 24 92
992 90 0 0.0 183 23 91
993 90 0 0.0 184 23 92
994 90 0 0.0 181 25 91
995 90 0 0.0 181 26 91
996 90 0 0.0 180 27 96
997 90 0 0.0 179 27 97
998 90 0 0.0 178 27 97
999 90 0 0.0 181 26 96
1000 90 0 0.0 181 25 95
1001 91 2 0.0 146 181 116
1002 91 0 0.0 147 184 114
1003 91 0 0.0 148 184 113
1004 91 0 0.0 147 185 112
1005 91 0 0.0 146 184 115
1006 91 0 0.0 146 183 115
1007 91 0 0.0 145 178 118
1008 91 0 0.0 144 179 119
1009 91 0 0.0 143 180 120
1010 91 0 0.0 145 177 118
1011 91 0 0.0 144 177 117
1012 92 2 0.0 15 142 181
1013 92 0 0.0 16 142 179
1014 92 0 0.0 16 143 178
1015 92 0 0.0 15 143 177
1016 92 0 0.0 17 143 178
1017 92 0 0.0 18 143 177
1018 92 0 0.0 12 140 183
1019 92 0 0.0 12 139 182
1020 92 0 0.0 11 140 183
1021 92 0 0.0 12 141 182
1022 92 0 0.0 11 140 182
1023 93 2 0.0 110 82 59
1024 93 0 0.0 108 85 60
1025 93 0 0.0 108 86 61
1026 93 0 0.0 109 85 61
1027 93 0 0.0 109 85 59
1028 93 0 0.0 110 86 58
1029 93 0 0.0 112 81 58
1030 93 0 0.0 113 80 57
1031 93 0 0.0 113 79 56
1032 93 0 0.0 112 82 59
1033 93 0 0.0 113 82 59
1034 94 2 0.0 173 165 55
1035 94 0 0.0 174 167 57
1036 94 0 0.0 173 168 57
1037 94 0 0.0 174 169 57
1038 94 0 0.0 173 166 56
1039 94 0 0.0 174 167 56
1040 94 0 0.0 175 164 53
1041 94 0 0.0 176 163 53
1042 94 0 0.0 177 164 54
1043 94 0 0.0 174 163 52
1044 94 0 0.0 175 164 52
1045 95 2 0.0 122 121 6
1046 95 0 0.0 122 118 4
1047 95 0 0.0 123 117 3
1048 95 0 0.0 124 118 3
1049 95 0 0.0 121 119 4
1050 95 0 0.0 120 118 5
1051 95 0 0.0 119 121 3
1052 95 0 0.0 118 120 4
1053 95 0 0.0 118 119 5
1054 95 0 0.0 118 121 2
1055 95 0 0.0 119 120 3
1056 96 2 0.0 168 110 174
1057 96 0 0.0 169 110 174
1058 96 0 0.0 169 110 173
1059 96 0 0.0 169 109 174
1060 96 0 0.0 168 110 175
1061 96 0 0.0 167 109 175
1062 96 0 0.0 169 111 173
1063 96 0 0.0 169 112 174
1064 96 0 0.0 168 112 173
1065 96 0 0.0 168 112 172
1066 96 0 0.0 169 111 172
1067 97 2 0.0 93 180 171
1068 97 0 0.0 92 179 168
1069 97 0 0.0 91 179 168
1070 97 0 0.0 91 180 167
1071 97 0 0.0 91 180 168
1072 97 0 0.0 90 180 169
1073 97 0 0.0 94 182 172
1074 97 0 0.0 95 183 173
1075 97 0 0.0 95 182 172
1076 97 0 0.0 93 182 172
1077 97 0 0.0 93 181 172
1078 98 2 0.0 166 26 164
1079 98 0 0.0 168 25 163
1080 98 0 0.0 168 26 163
1081 98 0 0.0 168 26 162
1082 98 0 0.0 167 24 163
1083 98 0 0.0 167 24 162
1084 98 0 0.0 164 25 167
1085 98 0 0.0 165 26 167
1086 98 0 0.0 164 27 168
1087 98 0 0.0 163 25 168
1088 98 0 0.0 164 25 168
1089 99 2 0.0 182 105 64
1090 99 0 0.0 185 107 61
1091 99 0 0.0 185 108 60
1092 99 0 0.0 184 109 60
1093 99 0 0.0 184 106 62
1094 99 0 0.0 183 107 63
1095 99 0 0.0 182 108 65
1096 99 0 0.0 183 107 64
1097 99 0 0.0 182 106 64
1098 99 0 0.0 183 107 66
1099 99 0 0.0 183 108 67
1100 100 2 0.0 138 83 164
1101 100 0 0.0 140 83 161
1102 100 0 0.0 140 84 162
1103 100 0 0.0 141 84 162
1104 100 0 0.0 139 83 162
1105 100 0 0.0 138 84 162
1106 100 0 0.0 141 84 166
1107 100 0 0.0 140 84 166
1108 100 0 0.0 140 84 167
1109 100 0 0.0 142 83 165
1110 100 0 0.0 142 84 165
1111 101 2 0.0 70 101 50
1112 101 0 0.0 71 103 49
1113 101 0 0.0 70 104 49
1114 101 0 0.0 70 104 48
1115 101 0 0.0 72 103 48
1116 101 0 0.0 71 104 47
1117 101 0 0.0 69 102 52
1118 101 0 0.0 68 103 51
1119 101 0 0.0 67 104 52
1120 101 0 0.0 68 102 52
1121 101 0 0.0 68 103 52
1122 102 2 0.0 125 120 51
1123 102 0 0.0 124 121 50
1124 102 0 0.0 124 120 50
1125 102 0 0.0 124 121 49
1126 102 0 0.0 123 122 50
1127 102 0 0.0 123 123 49
1128 102 0 0.0 122 119 51
1129 102 0 0.0 122 118 52
1130 102 0 0.0 122 117 52
1131 102 0 0.0 121 118 52
1132 102 0 0.0 120 118 53
1133 103 2 0.0 89 54 21
1134 103 0 0.0 89 52 19
1135 103 0 0.0 88 52 20
1136 103 0 0.0 87 52 19
1137 103 0 0.0 89 51 20
1138 103 0 0.0 88 51 21
1139 103 0 0.0 86 53 20
1140 103 0 0.0 86 53 21
1141 103 0 0.0 87 52 21
1142 103 0 0.0 85 54 19
1143 103 0 0.0 86 54 20
1144 104 2 0.0 48 193 87
1145 104 0 0.0 47 195 88
1146 104 0 0.0 48 196 88
1147 104 0 0.0 49 195 89
1148 104 0 0.0 46 194 87
1149 104 0 0.0 46 195 87
1150 104 0 0.0 47 194 87
1151 104 0 0.0 46 193 86
1152 104 0 0.0 46 193 85
1153 104 0 0.0 47 195 86
1154 104 0 0.0 48 195 87
1155 105 2 0.0 33 47 55
1156 105 0 0.0 30 44 55
1157 105 0 0.0 31 44 54
1158 105 0 0.0 32 44 53
1159 105 0 0.0 30 43 54
1160 105 0 0.0 29 42 53
1161 105 0 0.0 34 47 55
1162 105 0 0.0 35 48 54
1163 105 0 0.0 36 48 53
1164 105 0 0.0 35 47 55
1165 105 0 0.0 35 48 56
1166 106 2 0.0 7 140 89
1167 106 0 0.0 10 143 86
1168 106 0 0.0 9 143 85
1169 106 0 0.0 8 143 84
1170 106 0 0.0 9 143 87
1171 106 0 0.0 9 143 86
1172 106 0 0.0 4 143 86
1173 106 0 0.0 4 142 87
1174 106 0 0.0 5 141 88
1175 106 0 0.0 3 144 85
1176 106 0 0.0 2 143 84
1177 107 2 0.0 121 65 24
1178 107 0 0.0 120 63 26
1179 107 0 0.0 120 63 27
1180 107 0 0.0 119 63 26
1181 107 0 0.0 121 64 25
1182 107 0 0.0 120 64 25
1183 107 0 0.0 119 66 26
1184 107 0 0.0 118 65 25
1185 107 0 0.0 117 65 26
1186 107 0 0.0 119 67 26
1187 107 0 0.0 119 67 27
1188 108 2 0.0 1 178 152
1189 108 0 0.0 2 180 149
1190 108 0 0.0 1 181 148
1191 108 0 0.0 2 180 147
1192 108 0 0.0 1 181 149
1193 108 0 0.0 0 181 148
1194 108 0 0.0 0 179 152
1195 108 0 0.0 0 178 151
1196 108 0 0.0 0 177 151
1197 108 0 0.0 199 179 152
1198 108 0 0.0 199 180 151
1199 109 2 0.0 60 67 19
1200 109 0 0.0 57 66 17
1201 109 0 0.0 56 66 16
1202 109 0 0.0 55 65 15
1203 109 0 0.0 56 67 18
1204 109 0 0.0 56 67 19
1205 109 0 0.0 59 64 21
1206 109 0 0.0 58 63 20
1207 109 0 0.0 57 62 20
1208 109 0 0.0 58 65 20
1209 109 0 0.0 57 65 21
1210 110 2 0.0 168 18 132
1211 110 0 0.0 171 21 130
1212 110 0 0.0 172 22 129
1213 110 0 0.0 173 21 128
1214 110 0 0.0 171 21 131
1215 110 0 0.0 172 21 132
1216 110 0 0.0 167 17 131
1217 110 0 0.0 166 18 132
1218 110 0 0.0 167 19 133
1219 110 0 0.0 167 18 130
1220 110 0 0.0 167 19 129
1221 111 2 0.0 161 115 19
1222 111 0 0.0 164 118 20
1223 111 0 0.0 165 117 21
1224 111 0 0.0 164 118 22
1225 111 0 0.0 164 119 19
1226 111 0 0.0 165 120 19
1227 111 0 0.0 164 116 20
1228 111 0 0.0 164 116 21
1229 111 0 0.0 165 116 21
1230 111 0 0.0 165 116 20
1231 111 0 0.0 166 115 19
1232 112 2 0.0 40 146 16
1233 112 0 0.0 37 143 14
1234 112 0 0.0 38 143 14
1235 112 0 0.0 39 142 15
1236 112 0 0.0 38 142 14
1237 112 0 0.0 38 141 15
1238 112 0 0.0 42 147 17
1239 112 0 0.0 43 148 16
1240 112 0 0.0 44 147 15
1241 112 0 0.0 43 147 16
1242 112 0 0.0 42 146 17
1243 113 2 0.0 198 93 88
1244 113 0 0.0 0 95 87
1245 113 0 0.0 1 94 86
1246 113 0 0.0 0 94 86
1247 113 0 0.0 199 96 87
1248 113 0 0.0 199 95 86
1249 113 0 0.0 198 90 88
1250 113 0 0.0 199 90 87
1251 113 0 0.0 199 91 88
1252 113 0 0.0 198 91 89
1253 113 0 0.0 199 90 90
1254 114 2 0.0 84 27 188
1255 114 0 0.0 85 25 185
1256 114 0 0.0 84 25 185
1257 114 0 0.0 85 24 185
1258 114 0 0.0 86 24 186
1259 114 0 0.0 86 25 187
1260 114 0 0.0 81 28 185
1261 114 0 0.0 82 28 186
1262 114 0 0.0 83 27 187
1263 114 0 0.0 82 27 185
1264 114 0 0.0 83 27 186
1265 115 2 0.0 125 176 94
1266 115 0 0.0 126 175 95
1267 115 0 0.0 126 174 94