ITEM: TIMESTEP
0
ITEM: NUMBER OF ATOMS
11000
ITEM: BOX BOUNDS pp pp pp
0 200
0 200
0 200
ITEM: ATOMS id type mol x y z bP
0 2 0 1 88 51 -1
1 0 0 1 83 51 6285
2 0 0 0 82 50 6284
3 0 0 1 81 50 6283
4 0 0 1 82 52 -1
5 0 0 1 82 53 6282
6 0 0 199 84 53 6287
7 0 0 199 83 54 6288
8 0 0 0 84 55 -1
9 0 0 199 85 53 6291
10 0 0 199 84 54 6290
11 2 1 104 65 157 -1
12 0 1 104 63 157 10524
13 0 1 105 62 158 10526
14 0 1 105 61 157 10522
15 0 1 105 63 157 10523
16 0 1 106 63 156 10525
17 0 1 105 69 157 7109
18 0 1 105 70 158 -1
19 0 1 105 69 159 7111
20 0 1 105 68 157 10518
21 0 1 104 69 158 10517
22 2 2 110 103 100 -1
23 0 2 111 103 105 -1
24 0 2 112 103 104 9651
25 0 2 111 103 103 6914
26 0 2 111 104 104 6917
27 0 2 110 103 104 6915
28 0 2 113 100 97 7927
29 0 2 112 101 96 7917
30 0 2 111 100 96 9655
31 0 2 113 100 96 -1
32 0 2 112 99 96 7926
33 2 3 97 159 146 -1
34 0 3 97 160 149 -1
35 0 3 96 160 149 10462
36 0 3 95 161 148 -1
37 0 3 98 161 149 10463
38 0 3 97 161 149 10465
39 0 3 102 160 147 10788
40 0 3 103 160 146 -1
41 0 3 102 159 147 10471
42 0 3 102 159 146 10787
43 0 3 101 158 146 10790
44 2 4 110 99 115 -1
45 0 4 109 100 111 5980
46 0 4 109 100 110 7285
47 0 4 110 101 110 7286
48 0 4 110 99 112 5983
49 0 4 111 100 111 7266
50 0 4 111 99 110 7270
51 0 4 110 100 109 8916
52 0 4 110 99 109 7289
53 0 4 112 99 111 -1
54 0 4 113 99 110 -1
55 2 5 32 20 170 -1
56 0 5 30 24 170 7399
57 0 5 30 24 171 7402
58 0 5 29 24 172 7401
59 0 5 30 23 170 7398
60 0 5 29 22 171 7400
61 0 5 31 23 168 7395
62 0 5 32 22 167 7397
63 0 5 31 21 168 7394
64 0 5 31 24 168 -1
65 0 5 32 24 169 7393
66 2 6 96 102 84 -1
67 0 6 98 100 86 6648
68 0 6 98 99 85 7334
69 0 6 99 98 86 7336
70 0 6 99 101 87 7212
71 0 6 100 100 87 7333
72 0 6 99 100 86 6649
73 0 6 100 100 86 7213
74 0 6 99 99 87 -1
75 0 6 98 101 86 6040
76 0 6 97 101 87 5510
77 2 7 27 154 114 -1
78 0 7 27 151 113 6093
79 0 7 27 150 112 6090
80 0 7 27 149 113 6089
81 0 7 26 150 114 6091
82 0 7 26 150 113 -1
83 0 7 28 152 115 6086
84 0 7 29 151 114 -1
85 0 7 30 151 115 -1
86 0 7 28 151 114 6084
87 0 7 29 150 114 6087
88 2 8 30 2 150 -1
89 0 8 33 5 149 9466
90 0 8 33 6 150 9468
91 0 8 34 6 149 -1
92 0 8 32 4 150 9467
93 0 8 33 3 150 -1
94 0 8 33 5 148 9469
95 0 8 33 4 148 9470
96 0 8 32 3 148 -1
97 0 8 34 4 147 -1
98 0 8 33 4 146 -1
99 2 9 120 64 160 -1
100 0 9 116 66 160 7676
101 0 9 117 66 161 -1
102 0 9 116 65 160 7673
103 0 9 115 65 159 7677
104 0 9 116 64 159 7669
105 0 9 116 62 159 7668
106 0 9 115 63 159 7671
107 0 9 115 62 160 7675
108 0 9 116 62 158 7670
109 0 9 115 61 158 7672
110 2 10 110 23 178 -1
111 0 10 108 21 179 10584
112 0 10 107 22 178 10585
113 0 10 106 23 177 10587
114 0 10 107 22 179 10588
115 0 10 106 21 180 10590
116 0 10 108 21 182 7639
117 0 10 109 22 182 7637
118 0 10 108 22 181 7638
119 0 10 107 21 183 7640
120 0 10 106 22 183 7644
121 2 11 102 138 32 -1
122 0 11 101 140 28 10308
123 0 11 100 139 29 10310
124 0 11 100 140 30 10315
125 0 11 100 141 28 10316
126 0 11 100 140 28 10313
127 0 11 103 140 28 10312
128 0 11 102 140 28 -1
129 0 11 101 139 29 10314
130 0 11 102 140 29 10309
131 0 11 103 141 30 10311
132 2 12 47 123 81 -1
133 0 12 45 122 85 9887
134 0 12 44 123 86 9886
135 0 12 44 124 87 9885
136 0 12 46 123 85 9888
137 0 12 45 124 85 9884
138 0 12 51 125 82 9879
139 0 12 52 125 81 9880
140 0 12 52 125 82 9881
141 0 12 50 125 81 9883
142 0 12 50 126 81 9882
143 2 13 89 92 92 -1
144 0 13 92 95 91 6568
145 0 13 91 95 91 7870
146 0 13 91 94 92 -1
147 0 13 93 94 90 6572
148 0 13 92 94 90 7875
149 0 13 92 93 90 -1
150 0 13 93 93 89 -1
151 0 13 92 94 88 -1
152 0 13 93 94 89 6570
153 0 13 94 94 90 7872
154 2 14 48 154 21 -1
155 0 14 51 153 20 7223
156 0 14 51 154 19 7221
157 0 14 51 155 20 7220
158 0 14 52 154 21 7222
159 0 14 53 154 22 7225
160 0 14 52 152 21 7224
161 0 14 51 153 21 7219
162 0 14 52 153 20 7218
163 0 14 53 153 21 7217
164 0 14 54 152 22 -1
165 2 15 157 80 130 -1
166 0 15 157 78 126 8094
167 0 15 158 79 125 8093
168 0 15 158 78 125 8090
169 0 15 157 79 125 8086
170 0 15 156 80 126 8092
171 0 15 158 79 127 8091
172 0 15 159 78 127 -1
173 0 15 160 78 127 8089
174 0 15 159 80 126 8088
175 0 15 158 81 125 8087
176 2 16 57 180 51 -1
177 0 16 54 183 49 6482
178 0 16 53 182 50 6481
179 0 16 52 182 51 -1
180 0 16 53 182 48 6483
181 0 16 53 181 47 6484
182 0 16 54 177 48 6489
183 0 16 55 176 49 -1
184 0 16 54 176 49 6486
185 0 16 53 178 49 6487
186 0 16 54 178 48 6488
187 2 17 93 102 99 -1
188 0 17 92 104 98 -1
189 0 17 91 105 98 6746
190 0 17 90 105 98 7185
191 0 17 91 104 98 7188
192 0 17 91 105 97 7187
193 0 17 92 105 96 -1
194 0 17 93 105 97 7307
195 0 17 92 106 97 7308
196 0 17 92 104 96 7306
197 0 17 92 105 95 5802
198 2 18 102 94 107 -1
199 0 18 99 90 107 -1
200 0 18 98 91 108 9860
201 0 18 99 91 107 -1
202 0 18 100 91 106 6814
203 0 18 99 92 106 6813
204 0 18 103 93 112 10305
205 0 18 103 93 111 10306
206 0 18 102 92 111 9671
207 0 18 104 93 113 6212
208 0 18 104 94 113 10302
209 2 19 80 125 148 -1
210 0 19 85 125 147 6194
211 0 19 86 125 147 -1
212 0 19 85 124 148 6198
213 0 19 84 124 147 -1
214 0 19 84 124 146 6196
215 0 19 82 126 150 7320
216 0 19 83 125 149 -1
217 0 19 82 125 149 6199
218 0 19 83 127 150 6203
219 0 19 82 126 151 6200
220 2 20 108 96 87 -1
221 0 20 107 98 91 -1
222 0 20 106 97 90 -1
223 0 20 106 96 89 6107
224 0 20 106 98 92 9758
225 0 20 105 99 92 10051
226 0 20 109 93 87 8444
227 0 20 110 92 87 9765
228 0 20 110 91 86 9063
229 0 20 108 92 87 -1
230 0 20 109 92 88 9764
231 2 21 176 87 30 -1
232 0 21 179 84 27 6895
233 0 21 180 83 27 6891
234 0 21 180 82 28 7947
235 0 21 178 83 26 6896
236 0 21 178 82 26 6892
237 0 21 180 88 32 7949
238 0 21 180 89 32 8303
239 0 21 179 88 33 8304
240 0 21 179 88 31 7950
241 0 21 178 88 30 8302
242 2 22 95 105 102 -1
243 0 22 97 108 105 5766
244 0 22 96 109 105 -1
245 0 22 95 109 104 6749
246 0 22 96 108 104 7486
247 0 22 97 107 103 7481
248 0 22 96 110 102 6940
249 0 22 96 109 103 7485
250 0 22 96 110 104 6750
251 0 22 96 110 101 6951
252 0 22 95 109 100 6950
253 2 23 18 138 7 -1
254 0 23 20 136 3 5992
255 0 23 21 135 4 5991
256 0 23 20 135 4 7551
257 0 23 21 137 4 5987
258 0 23 22 138 3 -1
259 0 23 22 137 6 5993
260 0 23 21 138 5 5985
261 0 23 21 139 4 -1
262 0 23 23 137 5 5988
263 0 23 23 138 6 5989
264 2 24 112 150 98 -1
265 0 24 112 152 102 8164
266 0 24 112 152 101 8163
267 0 24 112 151 101 -1
268 0 24 111 153 102 8166
269 0 24 112 154 102 8165
270 0 24 107 150 97 8171
271 0 24 107 149 98 8172
272 0 24 108 149 97 8168
273 0 24 108 151 98 8169
274 0 24 108 151 97 8170
275 2 25 17 133 25 -1
276 0 25 16 137 22 10699
277 0 25 15 138 23 10698
278 0 25 14 138 24 10696
279 0 25 15 137 22 10700
280 0 25 16 137 23 10701
281 0 25 15 137 24 10702
282 0 25 15 137 25 10695
283 0 25 14 138 25 10693
284 0 25 14 136 24 10694
285 0 25 13 137 23 10697
286 2 26 9 167 184 -1
287 0 26 10 166 189 5616
288 0 26 9 165 189 5617
289 0 26 8 166 188 5612
290 0 26 10 166 188 5614
291 0 26 11 165 188 5618
292 0 26 9 166 186 -1
293 0 26 10 166 186 5613
294 0 26 9 166 187 5611
295 0 26 10 167 186 5615
296 0 26 11 167 187 -1
297 2 27 116 102 110 -1
298 0 27 112 102 107 7262
299 0 27 113 103 107 -1
300 0 27 114 103 107 9665
301 0 27 112 101 108 9660
302 0 27 113 100 107 7079
303 0 27 111 103 110 6529
304 0 27 111 102 111 7267
305 0 27 110 101 111 7269
306 0 27 110 102 111 -1
307 0 27 111 101 110 -1
308 2 28 105 91 88 -1
309 0 28 109 89 88 9057
310 0 28 108 89 89 9060
311 0 28 109 88 89 9054
312 0 28 110 89 88 9062
313 0 28 111 90 87 9056
314 0 28 104 96 89 6106
315 0 28 105 96 90 -1
316 0 28 106 97 89 9762
317 0 28 104 95 89 7013
318 0 28 105 95 88 7014
319 2 29 165 43 132 -1
320 0 29 166 45 128 8605
321 0 29 165 46 128 8603
322 0 29 164 45 129 8604
323 0 29 166 44 128 -1
324 0 29 166 43 127 8610
325 0 29 165 42 127 8609
326 0 29 165 43 126 8607
327 0 29 164 44 125 8606
328 0 29 164 43 128 8608
329 0 29 163 43 127 8612
330 2 30 53 127 90 -1
331 0 30 55 127 92 9939
332 0 30 56 126 91 9941
333 0 30 56 127 91 9942
334 0 30 55 128 92 9940
335 0 30 54 128 92 9936
336 0 30 53 128 93 9938
337 0 30 52 128 93 9937
338 0 30 53 129 92 9935
339 0 30 54 128 94 -1
340 0 30 55 128 94 -1
341 2 31 73 155 85 -1
342 0 31 69 154 88 10205
343 0 31 68 153 88 10201
344 0 31 68 152 87 10198
345 0 31 68 154 87 10203
346 0 31 67 154 87 -1
347 0 31 69 155 85 10206
348 0 31 69 154 86 10202
349 0 31 68 153 85 10199
350 0 31 68 155 85 -1
351 0 31 67 156 86 10207
352 2 32 51 53 34 -1
353 0 32 48 56 33 8876
354 0 32 47 56 32 8869
355 0 32 46 56 31 8874
356 0 32 49 57 34 -1
357 0 32 49 58 35 7122
358 0 32 52 56 35 7120
359 0 32 52 55 36 -1
360 0 32 53 54 36 -1
361 0 32 53 56 35 5998
362 0 32 54 57 36 5997
363 2 33 24 140 8 -1
364 0 33 23 136 10 -1
365 0 33 24 136 9 9129
366 0 33 24 137 10 9126
367 0 33 23 137 9 9128
368 0 33 22 137 10 9124
369 0 33 22 138 10 9123
370 0 33 21 138 10 9120
371 0 33 20 139 10 -1
372 0 33 23 139 10 -1
373 0 33 22 139 10 9127
374 2 34 107 78 156 -1
375 0 34 104 81 158 6560
376 0 34 105 82 159 -1
377 0 34 105 81 160 6561
378 0 34 103 80 157 -1
379 0 34 104 79 156 6559
380 0 34 105 79 158 6558
381 0 34 105 79 159 6557
382 0 34 106 79 158 6565
383 0 34 104 78 157 6563
384 0 34 103 79 158 6562
385 2 35 102 90 104 -1
386 0 35 104 89 100 -1
387 0 35 103 88 99 6514
388 0 35 102 88 98 8548
389 0 35 103 88 101 8284
390 0 35 104 87 100 -1
391 0 35 103 87 102 8553
392 0 35 103 86 103 9842
393 0 35 104 85 103 6519
394 0 35 103 88 102 -1
395 0 35 102 89 102 6516
396 2 36 106 115 103 -1
397 0 36 104 118 100 10486
398 0 36 105 117 99 -1
399 0 36 104 118 98 -1
400 0 36 105 119 99 -1
401 0 36 104 118 99 10487
402 0 36 101 115 102 -1
403 0 36 101 116 103 10383
404 0 36 100 116 104 -1
405 0 36 102 116 101 -1
406 0 36 101 116 102 10377
407 2 37 103 100 117 -1
408 0 37 105 97 115 8116
409 0 37 106 98 115 8117
410 0 37 105 99 115 8114
411 0 37 104 97 115 -1
412 0 37 105 97 114 10301
413 0 37 102 99 112 10012
414 0 37 101 98 111 -1
415 0 37 100 97 112 6163
416 0 37 102 98 113 10011
417 0 37 101 97 112 6162
418 2 38 12 147 48 -1
419 0 38 10 145 49 -1
420 0 38 9 146 50 -1
421 0 38 8 146 50 -1
422 0 38 9 146 48 -1
423 0 38 9 145 49 -1
424 0 38 11 146 53 10982
425 0 38 11 145 52 -1
426 0 38 10 144 51 -1
427 0 38 11 147 53 10983
428 0 38 10 146 53 10980
429 2 39 103 67 22 -1
430 0 39 101 71 22 -1
431 0 39 100 70 23 10436
432 0 39 100 70 24 10434
433 0 39 101 70 21 10432
434 0 39 102 71 21 -1
435 0 39 104 64 21 8642
436 0 39 105 64 20 8643
437 0 39 106 63 21 -1
438 0 39 105 63 21 8638
439 0 39 104 64 20 8641
440 2 40 72 124 137 -1
441 0 40 70 123 134 7050
442 0 40 70 123 135 7046
443 0 40 69 124 135 7044
444 0 40 71 122 134 7048
445 0 40 72 123 134 -1
446 0 40 69 123 134 7041
447 0 40 68 124 133 7042
448 0 40 68 125 133 7045
449 0 40 69 122 133 7049
450 0 40 68 121 133 7047
451 2 41 105 102 91 -1
452 0 41 106 104 93 9478
453 0 41 107 105 93 9475
454 0 41 107 106 93 9480
455 0 41 106 103 92 -1
456 0 41 107 103 91 -1
457 0 41 104 103 93 -1
458 0 41 103 103 94 9158
459 0 41 102 104 95 -1
460 0 41 105 102 94 9159
461 0 41 104 102 94 -1
462 2 42 108 85 95 -1
463 0 42 108 89 95 8412
464 0 42 107 88 96 10920
465 0 42 108 88 95 8411
466 0 42 107 90 96 6337
467 0 42 108 90 97 6338
468 0 42 106 86 95 8410
469 0 42 106 87 96 10919
470 0 42 105 88 97 -1
471 0 42 105 87 95 8474
472 0 42 106 88 95 8472
473 2 43 107 98 108 -1
474 0 43 110 102 109 6531
475 0 43 111 102 110 8917
476 0 43 112 101 111 7268
477 0 43 110 103 110 7287
478 0 43 111 103 109 8918
479 0 43 107 96 109 -1
480 0 43 107 95 110 10897
481 0 43 106 94 110 10900
482 0 43 106 95 109 10899
483 0 43 105 95 108 -1
484 2 44 97 103 86 -1
485 0 44 96 104 90 7702
486 0 44 97 104 91 -1
487 0 44 98 104 90 10048
488 0 44 95 103 91 8524
489 0 44 95 104 92 -1
490 0 44 99 103 89 10044
491 0 44 99 104 89 10644
492 0 44 100 104 90 7211
493 0 44 100 103 88 10045
494 0 44 99 103 88 -1
495 2 45 89 110 103 -1
496 0 45 94 110 102 6752
497 0 45 93 111 103 7806
498 0 45 94 110 104 -1
499 0 45 94 110 101 6937
500 0 45 93 111 100 6902
501 0 45 93 111 105 -1
502 0 45 92 112 104 7807
503 0 45 91 113 105 7805
504 0 45 93 112 105 5960
505 0 45 92 111 105 5957
506 2 46 166 106 198 -1
507 0 46 166 108 2 -1
508 0 46 167 107 3 10261
509 0 46 167 108 2 10259
510 0 46 166 109 3 10260
511 0 46 166 108 4 10258
512 0 46 162 107 1 10257
513 0 46 161 108 0 10256
514 0 46 162 109 1 10253
515 0 46 162 108 2 10254
516 0 46 161 107 1 10255
517 2 47 91 96 98 -1
518 0 47 87 97 97 6175
519 0 47 88 97 98 6172
520 0 47 87 98 97 6176
521 0 47 88 96 96 6174
522 0 47 88 97 95 6173
523 0 47 88 100 97 7771
524 0 47 87 99 96 10633
525 0 47 88 99 97 10634
526 0 47 87 101 98 7767
527 0 47 86 102 97 10807
528 2 48 128 13 145 -1
529 0 48 128 12 141 -1
530 0 48 128 11 140 -1
531 0 48 129 11 140 10042
532 0 48 127 11 142 -1
533 0 48 128 12 142 10040
534 0 48 129 12 141 10039
535 0 48 130 13 141 10038
536 0 48 130 14 140 10037
537 0 48 130 12 141 -1
538 0 48 129 13 140 10041
539 2 49 47 56 145 -1
540 0 49 45 55 146 6012
541 0 49 44 54 145 6014
542 0 49 45 54 144 6010
543 0 49 44 56 146 -1
544 0 49 43 55 146 6011
545 0 49 46 55 148 6009
546 0 49 45 56 148 6016
547 0 49 45 55 147 6008
548 0 49 47 55 147 6007
549 0 49 46 54 148 6015
550 2 50 97 92 90 -1
551 0 50 100 91 87 7328
552 0 50 99 90 88 9607
553 0 50 98 91 88 8383
554 0 50 99 90 87 9556
555 0 50 98 89 86 8385
556 0 50 100 93 88 9406
557 0 50 99 93 87 9407
558 0 50 99 93 88 7330
559 0 50 100 92 88 8386
560 0 50 101 91 87 8387
561 2 51 95 107 98 -1
562 0 51 95 108 101 7490
563 0 51 94 107 100 7482
564 0 51 93 108 100 6948
565 0 51 94 108 102 7483
566 0 51 94 107 102 7484
567 0 51 95 112 98 6904
568 0 51 95 111 97 8585
569 0 51 94 111 98 10026
570 0 51 95 113 99 6935
571 0 51 94 114 98 8590
572 2 52 196 198 185 -1
573 0 52 195 194 185 8120
574 0 52 195 195 184 8121
575 0 52 194 195 183 -1
576 0 52 194 195 185 8119
577 0 52 195 194 184 8122
578 0 52 192 198 183 -1
579 0 52 192 197 183 8127
580 0 52 191 197 183 8128
581 0 52 191 198 182 -1
582 0 52 192 199 183 8126
583 2 53 99 153 146 -1
584 0 53 100 157 148 -1
585 0 53 99 156 149 10784
586 0 53 98 156 150 -1
587 0 53 100 157 147 10468
588 0 53 100 158 146 -1
589 0 53 98 155 147 10781
590 0 53 97 154 147 -1
591 0 53 97 153 148 -1
592 0 53 98 154 148 10783
593 0 53 99 154 148 10785
594 2 54 144 75 50 -1
595 0 54 145 76 55 10971
596 0 54 146 76 54 10969
597 0 54 146 75 55 10970
598 0 54 145 75 56 10968
599 0 54 144 74 55 10972
600 0 54 145 74 53 9740
601 0 54 145 74 54 -1
602 0 54 145 75 54 9738
603 0 54 144 73 52 9736
604 0 54 143 74 52 9737
605 2 55 107 88 102 -1
606 0 55 106 88 105 10704
607 0 55 105 87 104 9841
608 0 55 104 88 103 6522
609 0 55 106 87 105 -1
610 0 55 105 88 105 9676
611 0 55 105 86 106 9840
612 0 55 106 86 106 9839
613 0 55 107 86 105 10706
614 0 55 104 86 105 9836
615 0 55 103 87 106 9677
616 2 56 107 93 115 -1
617 0 56 109 96 113 7795
618 0 56 109 95 112 -1
619 0 56 109 95 113 7794
620 0 56 109 96 112 7797
621 0 56 108 97 111 6525
622 0 56 105 96 112 -1
623 0 56 106 96 113 10892
624 0 56 107 96 112 10895
625 0 56 106 97 113 10891
626 0 56 105 98 112 5974
627 2 57 84 15 68 -1
628 0 57 82 12 66 7833
629 0 57 83 11 67 -1
630 0 57 82 11 68 -1
631 0 57 82 11 65 7834
632 0 57 83 12 65 -1
633 0 57 81 15 66 7841
634 0 57 81 16 66 7838
635 0 57 81 15 67 -1
636 0 57 80 14 67 -1
637 0 57 81 14 67 7837
638 2 58 107 111 108 -1
639 0 58 109 111 104 10957
640 0 58 110 111 105 10965
641 0 58 109 112 105 10966
642 0 58 108 112 105 -1
643 0 58 108 112 106 10964
644 0 58 104 113 111 7889
645 0 58 104 112 110 7888
646 0 58 104 113 109 7890
647 0 58 105 114 111 -1
648 0 58 105 113 110 -1
649 2 59 104 88 115 -1
650 0 59 103 89 110 -1
651 0 59 104 90 110 6213
652 0 59 104 90 109 6214
653 0 59 102 88 111 6205
654 0 59 103 88 112 6207
655 0 59 101 91 112 6210
656 0 59 102 92 112 9670
657 0 59 101 93 113 -1
658 0 59 102 91 111 -1
659 0 59 103 90 110 6816
660 2 60 91 109 101 -1
661 0 60 92 113 101 7801
662 0 60 93 114 100 -1
663 0 60 93 113 99 6932
664 0 60 93 112 101 6901
665 0 60 94 111 100 10024
666 0 60 92 108 99 6744
667 0 60 92 109 98 5590
668 0 60 92 110 97 6234
669 0 60 92 107 99 6748
670 0 60 92 108 100 6747
671 2 61 99 94 92 -1
672 0 61 102 95 89 9409
673 0 61 103 95 90 9410
674 0 61 104 94 90 9611
675 0 61 101 95 90 9551
676 0 61 102 96 90 9550
677 0 61 96 96 92 6150
678 0 61 95 95 93 6154
679 0 61 94 96 92 6153
680 0 61 96 97 91 -1
681 0 61 95 96 90 -1
682 2 62 89 107 112 -1
683 0 62 91 110 109 8398
684 0 62 91 111 108 8396
685 0 62 91 110 107 8395
686 0 62 92 109 109 8397
687 0 62 92 110 109 8562
688 0 62 93 105 110 10753
689 0 62 92 106 109 10757
690 0 62 91 105 108 8403
691 0 62 93 104 109 -1
692 0 62 93 104 110 9959
693 2 63 84 96 107 -1
694 0 63 86 99 109 6581
695 0 63 85 99 108 6583
696 0 63 85 99 109 7577
697 0 63 87 100 109 6579
698 0 63 87 101 109 -1
699 0 63 83 95 102 -1
700 0 63 83 96 101 7724
701 0 63 83 97 102 7732
702 0 63 83 96 102 7727
703 0 63 83 95 101 -1
704 2 64 175 109 114 -1
705 0 64 176 106 118 -1
706 0 64 175 105 119 -1
707 0 64 176 104 120 -1
708 0 64 176 107 117 -1
709 0 64 177 106 118 -1
710 0 64 173 105 116 -1
711 0 64 173 104 116 -1
712 0 64 173 103 117 -1
713 0 64 174 104 115 -1
714 0 64 175 105 115 -1
715 2 65 96 20 74 -1
716 0 65 94 24 74 10817
717 0 65 95 23 74 10820
718 0 65 96 23 75 -1
719 0 65 94 24 75 10822
720 0 65 93 23 76 -1
721 0 65 95 24 76 10814
722 0 65 94 25 75 10818
723 0 65 95 26 74 10816
724 0 65 95 23 75 10819
725 0 65 95 23 76 10823
726 2 66 44 181 73 -1
727 0 66 43 180 75 -1
728 0 66 43 180 76 -1
729 0 66 43 181 77 7295
730 0 66 42 180 75 7300
731 0 66 41 179 76 7301
732 0 66 45 181 76 7299
733 0 66 45 180 75 7297
734 0 66 46 181 76 7298
735 0 66 44 181 77 -1
736 0 66 45 181 78 7302
737 2 67 181 8 58 -1
738 0 67 185 8 55 9230
739 0 67 185 8 56 9234
740 0 67 186 8 56 9233
741 0 67 184 8 54 9235
742 0 67 183 9 54 -1
743 0 67 184 7 55 9238
744 0 67 185 7 55 9236
745 0 67 184 7 56 9231
746 0 67 183 7 55 -1
747 0 67 182 8 55 9239
748 2 68 90 66 73 -1
749 0 68 93 63 71 -1
750 0 68 92 64 70 10719
751 0 68 92 64 69 10718
752 0 68 92 62 70 10717
753 0 68 93 62 71 -1
754 0 68 92 62 73 9718
755 0 68 93 62 72 9717
756 0 68 92 62 71 -1
757 0 68 92 62 74 10722
758 0 68 92 62 75 10721
759 2 69 132 8 17 -1
760 0 69 132 11 20 -1
761 0 69 132 12 21 7030
762 0 69 131 12 20 7032
763 0 69 131 11 19 7031
764 0 69 131 11 18 7033
765 0 69 135 11 18 7035
766 0 69 134 11 18 7038
767 0 69 133 12 17 7039
768 0 69 134 10 19 7036
769 0 69 135 11 20 7037
770 2 70 97 106 97 -1
771 0 70 102 107 96 -1
772 0 70 103 108 95 7434
773 0 70 103 107 94 9683
774 0 70 102 107 95 9685
775 0 70 101 106 94 7654
776 0 70 101 107 95 7651
777 0 70 101 107 96 7432
778 0 70 101 108 96 10031
779 0 70 102 106 95 7655
780 0 70 102 105 94 9681
781 2 71 119 175 177 -1
782 0 71 122 173 178 10886
783 0 71 121 172 177 10887
784 0 71 120 172 178 10889
785 0 71 121 172 179 -1
786 0 71 121 171 180 10888
787 0 71 119 178 178 10882
788 0 71 120 178 179 -1
789 0 71 119 177 179 -1
790 0 71 120 177 178 10881
791 0 71 121 177 179 10880
792 2 72 125 15 135 -1
793 0 72 127 13 139 10033
794 0 72 128 14 140 10036
795 0 72 128 13 141 -1
796 0 72 126 14 140 10035
797 0 72 127 15 141 10034
798 0 72 124 15 140 -1
799 0 72 125 15 140 -1
800 0 72 125 16 141 -1
801 0 72 123 15 140 -1
802 0 72 124 14 139 -1
803 2 73 63 130 59 -1
804 0 73 66 132 59 8619
805 0 73 66 132 58 8622
806 0 73 65 131 57 8621
807 0 73 65 132 58 -1
808 0 73 64 132 57 10325
809 0 73 64 130 55 8615
810 0 73 63 131 56 10327
811 0 73 64 132 55 8617
812 0 73 65 130 55 10328
813 0 73 66 131 56 8616
814 2 74 100 103 83 -1
815 0 74 103 99 84 7132
816 0 74 104 100 85 7130
817 0 74 103 101 84 -1
818 0 74 102 99 84 7129
819 0 74 103 100 85 5502
820 0 74 101 100 86 5504
821 0 74 100 101 85 6647
822 0 74 101 101 84 5501
823 0 74 102 99 86 9411
824 0 74 103 98 85 -1
825 2 75 130 1 33 -1
826 0 75 132 5 33 -1
827 0 75 131 5 32 10544
828 0 75 130 5 33 -1
829 0 75 131 5 34 6278
830 0 75 131 4 34 10548
831 0 75 132 3 36 -1
832 0 75 131 3 35 -1
833 0 75 132 4 34 10545
834 0 75 132 4 36 10540
835 0 75 133 3 37 10541
836 2 76 158 46 156 -1
837 0 76 157 43 152 7514
838 0 76 158 44 153 7516
839 0 76 159 43 153 7518
840 0 76 158 43 152 7515
841 0 76 158 44 151 7517
842 0 76 155 46 158 -1
843 0 76 155 45 159 -1
844 0 76 155 46 159 10850
845 0 76 154 45 158 10847
846 0 76 155 44 157 10851
847 2 77 100 96 87 -1
848 0 77 97 98 89 8515
849 0 77 96 98 88 8516
850 0 77 95 98 89 6048
851 0 77 98 98 89 8517
852 0 77 97 99 88 8519
853 0 77 97 99 87 5509
854 0 77 98 100 88 6042
855 0 77 98 100 87 6043
856 0 77 96 100 86 5506
857 0 77 95 101 87 7703
858 2 78 90 109 94 -1
859 0 78 94 110 92 -1
860 0 78 93 109 92 -1
861 0 78 94 109 93 -1
862 0 78 94 111 93 7633
863 0 78 95 110 93 9440
864 0 78 92 107 96 7312
865 0 78 91 107 97 7310
866 0 78 90 108 96 5591
867 0 78 92 108 96 7314
868 0 78 93 109 95 5589
869 2 79 90 95 86 -1
870 0 79 91 98 90 5945
871 0 79 91 98 89 5948
872 0 79 92 97 90 7866
873 0 79 90 99 90 5942
874 0 79 90 99 91 5944
875 0 79 92 96 90 7869
876 0 79 92 97 89 5943
877 0 79 92 98 88 5941
878 0 79 93 96 89 7871
879 0 79 94 96 90 7874
880 2 80 140 41 143 -1
881 0 80 140 37 140 -1
882 0 80 139 36 141 6472
883 0 80 140 37 142 6473
884 0 80 139 37 140 6474
885 0 80 138 37 139 -1
886 0 80 138 38 141 6475
887 0 80 137 38 142 6470
888 0 80 136 39 143 6471
889 0 80 137 38 141 6476
890 0 80 138 38 142 6469
891 2 81 12 13 43 -1
892 0 81 11 17 44 9183
893 0 81 10 18 43 9180
894 0 81 9 18 42 9184
895 0 81 12 16 43 9182
896 0 81 11 15 43 9181
897 0 81 11 9 43 7941
898 0 81 12 9 42 -1
899 0 81 11 10 42 7937
900 0 81 12 10 43 7939
901 0 81 12 9 44 7938
902 2 82 101 96 105 -1
903 0 82 97 95 104 9190
904 0 82 97 96 105 9188
905 0 82 98 97 104 9189
906 0 82 96 96 105 10007
907 0 82 95 96 105 9186
908 0 82 98 96 108 -1
909 0 82 97 96 107 -1
910 0 82 97 97 107 7382
911 0 82 97 97 108 7385
912 0 82 96 97 109 5846
913 2 83 191 189 100 -1
914 0 83 191 186 100 6971
915 0 83 192 185 100 -1
916 0 83 192 184 99 6972
917 0 83 191 187 99 6969
918 0 83 191 186 98 6968
919 0 83 189 187 99 6970
920 0 83 190 186 98 -1
921 0 83 191 186 97 6967
922 0 83 188 187 98 6964
923 0 83 188 188 99 6965
924 2 84 5 14 84 -1
925 0 84 6 19 83 -1
926 0 84 6 18 83 7598
927 0 84 7 19 82 -1
928 0 84 7 19 84 7600
929 0 84 8 18 83 7596
930 0 84 4 14 81 7592
931 0 84 3 13 82 7595
932 0 84 3 14 83 -1
933 0 84 4 13 81 7594
934 0 84 4 13 80 7591
935 2 85 106 95 97 -1
936 0 85 105 98 94 6221
937 0 85 106 98 94 6216
938 0 85 107 97 95 6762
939 0 85 105 97 93 10082
940 0 85 104 96 93 10084
941 0 85 106 96 92 6222
942 0 85 107 96 93 -1
943 0 85 107 95 93 10085
944 0 85 107 97 93 6755
945 0 85 107 98 93 6759
946 2 86 108 109 90 -1
947 0 86 107 108 92 -1
948 0 86 107 108 91 9474
949 0 86 108 108 92 9512
950 0 86 107 108 93 9511
951 0 86 108 109 94 6498
952 0 86 107 108 94 7429
953 0 86 106 107 95 9418
954 0 86 105 107 94 7430
955 0 86 106 107 93 6500
956 0 86 105 106 94 9420
957 2 87 82 159 73 -1
958 0 87 85 157 76 8714
959 0 87 84 157 77 8717
960 0 87 84 158 76 8715
961 0 87 86 158 76 8716
962 0 87 87 157 77 -1
963 0 87 84 159 70 9705
964 0 87 83 158 70 9707
965 0 87 84 157 69 -1
966 0 87 83 160 70 9704
967 0 87 82 159 70 9706
968 2 88 113 142 74 -1
969 0 88 114 144 73 -1
970 0 88 113 144 72 5737
971 0 88 114 143 73 -1
972 0 88 113 145 74 -1
973 0 88 112 145 74 -1
974 0 88 111 145 72 -1
975 0 88 111 144 71 5739
976 0 88 110 144 72 5738
977 0 88 112 146 73 5740
978 0 88 113 147 73 5741
979 2 89 102 119 107 -1
980 0 89 99 117 105 7563
981 0 89 98 116 105 -1
982 0 89 98 116 106 -1
983 0 89 100 118 104 7560
984 0 89 100 117 103 7566
985 0 89 103 114 106 -1
986 0 89 102 114 107 7896
987 0 89 102 113 107 -1
988 0 89 102 114 105 5578
989 0 89 102 113 104 -1
990 2 90 87 11 7 -1
991 0 90 86 12 2 8663
992 0 90 87 13 2 8665
993 0 90 86 12 1 8666
994 0 90 87 11 1 8664
995 0 90 88 11 1 -1
996 0 90 85 10 4 -1
997 0 90 85 11 4 -1
998 0 90 84 10 5 8659
999 0 90 84 11 3 8658
1000 0 90 84 11 2 8667
1001 2 91 1 108 92 -1
1002 0 91 5 109 95 8751
1003 0 91 6 110 95 8752
1004 0 91 7 110 94 8753
1005 0 91 6 109 95 8746
1006 0 91 5 110 96 -1
1007 0 91 3 107 95 8755
1008 0 91 4 107 95 8747
1009 0 91 4 108 96 8754
1010 0 91 2 106 95 -1
1011 0 91 2 107 95 8748
1012 2 92 147 71 35 -1
1013 0 92 146 75 34 6597
1014 0 92 147 75 33 6594
1015 0 92 148 76 32 -1
1016 0 92 145 76 35 -1
1017 0 92 146 75 35 6596
1018 0 92 149 72 34 -1
1019 0 92 148 73 34 6593
1020 0 92 149 73 33 6592
1021 0 92 150 73 34 6591
1022 0 92 151 73 33 -1
1023 2 93 93 193 73 -1
1024 0 93 89 195 75 5730
1025 0 93 88 194 76 5721
1026 0 93 87 193 76 5723
1027 0 93 88 194 75 5724
1028 0 93 88 193 74 5722
1029 0 93 90 193 76 5726
1030 0 93 91 193 75 5728
1031 0 93 90 192 74 5725
1032 0 93 91 194 75 -1
1033 0 93 92 195 76 5727
1034 2 94 112 101 102 -1
1035 0 94 113 104 105 7957
1036 0 94 112 104 104 7958
1037 0 94 112 105 104 9652
1038 0 94 114 105 104 6736
1039 0 94 113 106 105 8176
1040 0 94 111 102 107 7263
1041 0 94 112 101 106 9662
1042 0 94 113 101 107 7080
1043 0 94 111 103 107 7264
1044 0 94 112 104 108 10287
1045 2 95 87 97 105 -1
1046 0 95 89 100 104 9192
1047 0 95 88 100 105 -1
1048 0 95 88 101 106 7576
1049 0 95 90 101 105 9193
1050 0 95 91 101 104 9191
1051 0 95 83 98 102 7731
1052 0 95 84 99 102 6638
1053 0 95 83 99 102 7728
1054 0 95 83 99 103 6643
1055 0 95 83 99 104 6636
1056 2 96 99 102 93 -1
1057 0 96 101 105 91 -1
1058 0 96 102 106 90 -1
1059 0 96 101 105 90 -1
1060 0 96 101 105 92 7215
1061 0 96 101 104 91 7214
1062 0 96 96 106 92 -1
1063 0 96 97 106 93 6942
1064 0 96 97 107 94 6945
1065 0 96 97 105 92 9156
1066 0 96 98 105 92 9157
1067 2 97 42 39 27 -1
1068 0 97 39 38 27 7602
1069 0 97 39 39 28 7603
1070 0 97 39 40 27 7605
1071 0 97 38 39 26 -1
1072 0 97 37 40 27 7604
1073 0 97 44 39 23 7609
1074 0 97 45 40 22 -1
1075 0 97 46 40 22 7611
1076 0 97 44 40 24 7610
1077 0 97 45 41 24 7607
1078 2 98 37 54 36 -1
1079 0 98 38 58 35 7351
1080 0 98 38 57 36 7352
1081 0 98 37 58 37 7349
1082 0 98 37 58 36 7356
1083 0 98 36 58 35 7353
1084 0 98 34 56 39 -1
1085 0 98 34 56 38 7354
1086 0 98 35 55 37 7355
1087 0 98 35 55 38 -1
1088 0 98 36 56 37 7358
1089 2 99 97 113 108 -1
1090 0 99 94 110 106 -1
1091 0 99 95 110 107 8560
1092 0 99 95 109 106 5767
1093 0 99 93 110 107 8394
1094 0 99 92 110 106 8559
1095 0 99 96 109 108 10179
1096 0 99 97 108 107 5765
1097 0 99 97 109 107 8564
1098 0 99 96 110 107 8568
1099 0 99 95 111 107 8567
1100 2 100 25 49 129 -1
1101 0 100 26 52 131 6140
1102 0 100 27 52 131 -1
1103 0 100 27 53 132 6146
1104 0 100 25 51 131 6142
1105 0 100 26 50 132 6141
1106 0 100 23 46 129 8785
1107 0 100 23 46 130 8782
1108 0 100 22 45 131 8779
1109 0 100 22 46 128 8780
1110 0 100 22 47 129 8786
1111 2 101 101 121 102 -1
1112 0 101 105 120 100 10484
1113 0 101 106 121 101 10488
1114 0 101 105 122 100 -1
1115 0 101 106 119 101 5586
1116 0 101 105 118 102 5587
1117 0 101 99 117 102 7559
1118 0 101 100 118 101 10378
1119 0 101 99 118 101 9483
1120 0 101 100 117 101 9484
1121 0 101 100 117 102 7567
1122 2 102 162 87 164 -1
1123 0 102 165 89 161 7460
1124 0 102 164 90 161 7465
1125 0 102 163 90 162 7463
1126 0 102 164 88 162 7467
1127 0 102 164 87 161 7461
1128 0 102 165 88 161 7464
1129 0 102 165 87 161 7468
1130 0 102 165 86 160 -1
1131 0 102 166 89 162 7459
1132 0 102 165 90 163 7462
1133 2 103 116 60 148 -1
1134 0 103 119 60 151 10660
1135 0 103 120 59 151 10668
1136 0 103 120 58 150 10669
1137 0 103 119 61 152 10663
1138 0 103 118 61 153 10664
1139 0 103 117 60 151 -1
1140 0 103 118 59 151 -1
1141 0 103 119 59 150 10665
1142 0 103 117 61 152 -1
1143 0 103 117 62 152 10667
1144 2 104 114 41 199 -1
1145 0 104 114 42 197 -1
1146 0 104 113 43 197 6786
1147 0 104 112 43 197 6785
1148 0 104 114 43 196 6783
1149 0 104 114 43 197 6778
1150 0 104 114 44 196 6781
1151 0 104 113 45 197 6779
1152 0 104 114 44 197 6784
1153 0 104 113 44 196 6782
1154 0 104 112 44 196 -1
1155 2 105 87 92 99 -1
1156 0 105 88 90 103 7027
1157 0 105 89 89 103 7024
1158 0 105 88 88 102 -1
1159 0 105 89 90 104 7025
1160 0 105 90 91 103 7026
1161 0 105 88 89 97 6502
1162 0 105 87 89 96 -1
1163 0 105 87 90 95 6506
1164 0 105 88 88 98 10676
1165 0 105 87 89 97 6503
1166 2 106 111 93 100 -1
1167 0 106 111 96 103 8355
1168 0 106 110 95 103 9873
1169 0 106 111 95 102 8997
1170 0 106 111 97 102 7076
1171 0 106 110 96 101 8359
1172 0 106 110 94 105 9874
1173 0 106 111 93 106 -1
1174 0 106 110 92 105 -1
1175 0 106 111 95 104 9876
1176 0 106 112 95 103 8417
1177 2 107 106 105 89 -1
1178 0 107 108 103 85 7134
1179 0 107 109 102 85 6115
1180 0 107 108 102 86 8281
1181 0 107 107 103 85 8337
1182 0 107 108 102 85 7138
1183 0 107 103 102 87 5505
1184 0 107 102 103 88 -1
1185 0 107 101 103 87 10046
1186 0 107 104 103 88 -1
1187 0 107 103 103 89 8334
1188 2 108 87 90 192 -1
1189 0 108 87 95 193 9496
1190 0 108 88 94 194 -1
1191 0 108 88 95 194 9494
1192 0 108 87 96 192 7158
1193 0 108 87 95 192 7159
1194 0 108 85 93 194 5810
1195 0 108 84 92 193 5811
1196 0 108 83 93 193 5812
1197 0 108 86 93 195 5817
1198 0 108 87 92 194 5815
1199 2 109 114 97 108 -1
1200 0 109 115 97 104 8862
1201 0 109 115 96 103 -1
1202 0 109 115 95 104 7424
1203 0 109 114 98 105 8861
1204 0 109 114 97 105 8865
1205 0 109 110 97 107 -1
1206 0 109 109 97 107 9248
1207 0 109 110 98 108 7288
1208 0 109 109 96 107 9872
1209 0 109 109 96 108 6417
1210 2 110 175 75 47 -1
1211 0 110 178 77 48 9626
1212 0 110 177 78 48 9629
1213 0 110 176 78 48 -1
1214 0 110 179 78 47 9630
1215 0 110 178 78 46 9627
1216 0 110 174 71 50 9631
1217 0 110 173 72 49 9632
1218 0 110 172 71 48 -1
1219 0 110 174 71 49 9633
1220 0 110 175 72 50 -1
1221 2 111 92 188 11 -1
1222 0 111 94 187 9 7582
1223 0 111 93 186 9 7580
1224 0 111 94 186 9 7584
1225 0 111 94 188 8 -1
1226 0 111 94 187 7 7581
1227 0 111 92 189 7 7585
1228 0 111 93 189 8 7588
1229 0 111 94 188 7 7583
1230 0 111 91 189 8 7589
1231 0 111 91 190 8 7587
1232 2 112 102 120 104 -1
1233 0 112 99 123 101 -1
1234 0 112 99 124 102 9492
1235 0 112 98 124 103 9488
1236 0 112 98 124 100 9491
1237 0 112 99 123 100 9490
1238 0 112 98 119 104 7565
1239 0 112 97 118 104 10379
1240 0 112 98 117 103 9485
1241 0 112 98 120 105 7561