ITEM: TIMESTEP
0
ITEM: NUMBER OF ATOMS
10000
ITEM: BOX BOUNDS pp pp pp
0 500
0 500
0 500
ITEM: ATOMS id type mol x y z bP
0 0 0 224 92 477 1
1 1 0 224 93 478 0
2 2 0 225 93 477 -1
3 3 0 226 92 477 -1
4 4 0 226 91 477 -1
5 5 0 225 90 476 -1
6 0 0 226 89 475 -1
7 6 0 226 90 476 -1
8 3 0 227 91 476 -1
9 5 0 227 92 476 -1
10 1 0 228 91 475 -1
11 7 0 227 91 474 -1
12 8 0 226 92 473 -1
13 6 0 227 91 473 -1
14 9 0 227 90 472 -1
15 8 0 228 91 471 -1
16 6 0 227 90 471 -1
17 6 0 226 91 471 -1
18 6 0 227 91 471 -1
19 7 0 228 90 470 -1
20 3 0 229 91 471 -1
21 5 0 230 90 471 -1
22 7 0 231 90 472 -1
23 5 0 230 91 472 -1
24 1 0 231 91 471 -1
25 3 0 230 91 470 -1
26 4 0 230 90 470 -1
27 3 0 229 89 469 -1
28 3 0 230 89 469 -1
29 5 0 230 88 469 -1
30 6 0 231 87 469 -1
31 4 0 230 87 468 -1
32 2 0 231 88 467 -1
33 2 0 230 88 466 -1
34 2 0 229 88 465 -1
35 2 0 228 89 465 -1
36 2 0 229 88 466 -1
37 4 0 230 87 466 -1
38 2 0 230 88 467 -1
39 2 0 230 89 467 -1
40 2 0 229 88 468 -1
41 2 0 228 87 468 -1
42 2 0 228 88 468 -1
43 2 0 227 87 469 -1
44 2 0 226 88 470 -1
45 2 0 226 87 471 -1
46 2 0 225 86 471 -1
47 4 0 226 86 471 -1
48 2 0 226 85 472 -1
49 4 0 226 85 471 -1
50 0 1 433 360 53 51
51 1 1 434 360 53 50
52 2 1 433 359 54 -1
53 3 1 432 360 55 -1
54 4 1 433 360 54 -1
55 5 1 433 359 53 -1
56 0 1 432 358 54 60
57 6 1 431 359 54 -1
58 3 1 431 360 55 -1
59 5 1 431 360 54 -1
60 1 1 432 359 53 56
61 7 1 433 360 52 -1
62 8 1 433 361 52 -1
63 6 1 433 361 53 -1
64 9 1 432 361 52 -1
65 8 1 433 361 51 -1
66 6 1 432 361 51 -1
67 6 1 432 360 50 -1
68 6 1 431 360 50 -1
69 7 1 430 360 49 -1
70 3 1 430 360 50 -1
71 5 1 431 361 49 -1
72 7 1 432 360 49 -1
73 5 1 431 360 49 -1
74 1 1 431 361 48 -1
75 3 1 431 361 47 -1
76 4 1 431 362 46 -1
77 3 1 432 363 46 -1
78 3 1 433 363 46 -1
79 5 1 434 362 46 -1
80 6 1 434 361 46 -1
81 4 1 435 361 46 -1
82 2 1 435 360 47 -1
83 2 1 434 361 47 -1
84 2 1 434 360 46 -1
85 2 1 434 360 47 -1
86 2 1 435 359 48 -1
87 4 1 434 358 49 -1
88 2 1 434 359 49 -1
89 2 1 434 360 49 -1
90 2 1 435 360 48 -1
91 2 1 436 361 49 -1
92 2 1 437 360 48 -1
93 2 1 436 360 47 -1
94 2 1 435 360 46 -1
95 2 1 435 360 45 -1
96 2 1 434 359 46 -1
97 4 1 434 359 45 -1
98 2 1 435 360 44 -1
99 4 1 436 361 44 -1
100 0 2 479 109 428 110
101 1 2 480 110 428 -1
102 2 2 479 111 427 -1
103 3 2 480 111 428 -1
104 4 2 481 110 429 -1
105 5 2 481 111 428 -1
106 0 2 482 111 427 -1
107 6 2 481 110 428 -1
108 3 2 480 110 427 -1
109 5 2 479 110 426 -1
110 1 2 479 110 427 100
111 7 2 480 109 428 -1
112 8 2 481 110 427 -1
113 6 2 481 110 426 -1
114 9 2 482 111 426 -1
115 8 2 481 112 427 -1
116 6 2 481 113 428 -1
117 6 2 480 113 427 -1
118 6 2 479 113 427 -1
119 7 2 479 113 428 -1
120 3 2 480 112 428 -1
121 5 2 479 112 427 -1
122 7 2 478 112 427 -1
123 5 2 477 113 428 -1
124 1 2 476 113 428 -1
125 3 2 477 113 427 -1
126 4 2 476 114 426 -1
127 3 2 477 114 425 -1
128 3 2 476 115 426 -1
129 5 2 477 116 425 -1
130 6 2 478 117 425 -1
131 4 2 478 117 426 -1
132 2 2 479 116 427 -1
133 2 2 478 115 428 -1
134 2 2 479 115 427 -1
135 2 2 478 115 427 -1
136 2 2 477 114 427 -1
137 4 2 478 113 428 -1
138 2 2 479 112 429 -1
139 2 2 478 111 430 -1
140 2 2 477 112 430 -1
141 2 2 477 113 431 -1
142 2 2 477 112 431 -1
143 2 2 478 113 431 -1
144 2 2 479 113 431 -1
145 2 2 480 113 432 -1
146 2 2 481 112 433 -1
147 4 2 482 111 434 -1
148 2 2 483 110 433 -1
149 4 2 484 111 433 -1
150 0 3 98 490 415 151
151 1 3 97 490 414 150
152 2 3 98 491 413 -1
153 3 3 99 490 412 -1
154 4 3 98 489 411 -1
155 5 3 99 488 412 -1
156 0 3 99 487 413 160
157 6 3 100 487 412 -1
158 3 3 100 487 413 -1
159 5 3 101 487 412 -1
160 1 3 100 486 412 156
161 7 3 101 487 413 -1
162 8 3 102 487 414 -1
163 6 3 102 488 413 -1
164 9 3 103 488 412 -1
165 8 3 104 488 412 -1
166 6 3 103 489 413 -1
167 6 3 102 490 412 -1
168 6 3 103 491 413 -1
169 7 3 102 491 414 -1
170 3 3 103 492 413 -1
171 5 3 103 493 414 -1
172 7 3 104 492 414 -1
173 5 3 103 493 415 -1
174 1 3 104 494 414 -1
175 3 3 104 494 413 -1
176 4 3 104 493 412 -1
177 3 3 104 494 411 -1
178 3 3 103 493 412 -1
179 5 3 103 494 412 -1
180 6 3 104 493 411 -1
181 4 3 103 494 410 -1
182 2 3 103 495 411 -1
183 2 3 102 496 410 -1
184 2 3 101 496 409 -1
185 2 3 101 497 408 -1
186 2 3 102 496 407 -1
187 4 3 102 497 407 -1
188 2 3 101 498 407 -1
189 2 3 101 498 408 -1
190 2 3 100 499 408 -1
191 2 3 101 499 408 -1
192 2 3 100 499 409 -1
193 2 3 101 0 409 -1
194 2 3 102 0 409 -1
195 2 3 103 499 408 -1
196 2 3 102 0 408 -1
197 4 3 102 1 408 -1
198 2 3 102 1 407 -1
199 4 3 103 1 407 -1
200 0 4 91 56 419 201
201 1 4 91 55 419 200
202 2 4 91 56 418 -1
203 3 4 90 57 418 -1
204 4 4 91 56 417 -1
205 5 4 90 55 416 -1
206 0 4 89 55 416 210
207 6 4 90 54 417 -1
208 3 4 90 53 416 -1
209 5 4 89 54 416 -1
210 1 4 90 55 417 206
211 7 4 91 54 417 -1
212 8 4 91 55 417 -1
213 6 4 92 54 417 -1
214 9 4 93 54 418 -1
215 8 4 93 53 418 -1
216 6 4 94 53 419 -1
217 6 4 95 52 418 -1
218 6 4 96 52 417 -1
219 7 4 97 53 416 -1
220 3 4 96 52 416 -1
221 5 4 95 53 416 -1
222 7 4 96 53 417 -1
223 5 4 97 54 417 -1
224 1 4 96 55 418 -1
225 3 4 97 55 419 -1
226 4 4 98 55 420 -1
227 3 4 99 54 420 -1
228 3 4 99 53 419 -1
229 5 4 99 54 419 -1
230 6 4 98 55 418 -1
231 4 4 98 56 418 -1
232 2 4 97 56 417 -1
233 2 4 96 55 417 -1
234 2 4 97 56 416 -1
235 2 4 96 57 415 -1
236 2 4 97 58 415 -1
237 4 4 98 57 416 -1
238 2 4 97 58 416 -1
239 2 4 98 58 417 -1
240 2 4 99 58 418 -1
241 2 4 98 57 418 -1
242 2 4 99 58 419 -1
243 2 4 98 57 419 -1
244 2 4 97 57 420 -1
245 2 4 96 57 421 -1
246 2 4 95 58 420 -1
247 4 4 95 57 421 -1
248 2 4 96 56 421 -1
249 4 4 96 57 422 -1
250 0 5 78 143 366 251
251 1 5 78 142 366 250
252 2 5 77 141 367 -1
253 3 5 77 140 368 -1
254 4 5 78 141 367 -1
255 5 5 77 140 366 -1
256 0 5 78 140 365 260
257 6 5 79 141 365 -1
258 3 5 78 142 364 -1
259 5 5 78 141 365 -1
260 1 5 78 140 364 256
261 7 5 77 139 365 -1
262 8 5 77 138 364 -1
263 6 5 78 137 365 -1
264 9 5 78 137 364 -1
265 8 5 78 138 364 -1
266 6 5 78 139 363 -1
267 6 5 78 139 362 -1
268 6 5 78 138 362 -1
269 7 5 77 137 363 -1
270 3 5 78 136 362 -1
271 5 5 79 136 363 -1
272 7 5 78 135 363 -1
273 5 5 79 134 362 -1
274 1 5 79 134 363 -1
275 3 5 78 135 364 -1
276 4 5 78 134 363 -1
277 3 5 79 134 364 -1
278 3 5 80 134 364 -1
279 5 5 79 133 365 -1
280 6 5 78 133 366 -1
281 4 5 77 132 366 -1
282 2 5 77 131 366 -1
283 2 5 76 132 367 -1
284 2 5 77 133 368 -1
285 2 5 76 133 367 -1
286 2 5 77 134 368 -1
287 4 5 78 134 368 -1
288 2 5 79 135 367 -1
289 2 5 78 135 367 -1
290 2 5 78 136 367 -1
291 2 5 79 137 366 -1
292 2 5 78 138 365 -1
293 2 5 78 139 365 -1
294 2 5 79 140 366 -1
295 2 5 80 141 366 -1
296 2 5 79 141 366 -1
297 4 5 79 142 366 -1
298 2 5 80 143 367 -1
299 4 5 80 142 366 -1
300 0 6 45 38 424 301
301 1 6 46 39 425 300
302 2 6 46 38 424 -1
303 3 6 45 37 423 -1
304 4 6 45 36 424 -1
305 5 6 46 37 424 -1
306 0 6 46 36 423 310
307 6 6 47 37 422 -1
308 3 6 47 36 422 -1
309 5 6 46 35 423 -1
310 1 6 47 35 423 306
311 7 6 46 35 424 -1
312 8 6 47 35 425 -1
313 6 6 48 36 425 -1
314 9 6 49 36 424 -1
315 8 6 49 36 423 -1
316 6 6 49 37 423 -1
317 6 6 49 38 422 -1
318 6 6 49 38 421 -1
319 7 6 50 39 420 -1
320 3 6 49 40 419 -1
321 5 6 48 41 419 -1
322 7 6 49 40 418 -1
323 5 6 48 39 418 -1
324 1 6 47 38 417 -1
325 3 6 47 37 418 -1
326 4 6 48 36 419 -1
327 3 6 49 35 419 -1
328 3 6 48 35 418 -1
329 5 6 49 35 417 -1
330 6 6 48 34 418 -1
331 4 6 47 35 417 -1
332 2 6 48 36 418 -1
333 2 6 48 37 418 -1
334 2 6 47 37 419 -1
335 2 6 46 37 419 -1
336 2 6 47 38 418 -1
337 4 6 46 38 418 -1
338 2 6 46 38 417 -1
339 2 6 46 37 417 -1
340 2 6 46 38 416 -1
341 2 6 45 37 416 -1
342 2 6 44 38 415 -1
343 2 6 43 39 415 -1
344 2 6 42 39 415 -1
345 2 6 41 39 416 -1
346 2 6 40 39 416 -1
347 4 6 41 39 415 -1
348 2 6 41 38 416 -1
349 4 6 42 38 416 -1
350 0 7 102 250 398 360
351 1 7 103 249 397 356
352 2 7 104 250 396 -1
353 3 7 103 250 397 -1
354 4 7 104 249 397 -1
355 5 7 103 250 396 -1
356 0 7 102 249 397 351
357 6 7 103 249 398 -1
358 3 7 104 249 398 -1
359 5 7 103 249 399 -1
360 1 7 102 249 398 350
361 7 7 102 248 397 -1
362 8 7 103 249 396 -1
363 6 7 103 250 395 -1
364 9 7 102 249 395 -1
365 8 7 103 249 394 -1
366 6 7 102 248 393 -1
367 6 7 102 248 394 -1
368 6 7 103 249 395 -1
369 7 7 103 250 394 -1
370 3 7 104 250 395 -1
371 5 7 104 251 395 -1
372 7 7 104 252 395 -1
373 5 7 105 252 394 -1
374 1 7 106 253 395 -1
375 3 7 106 252 395 -1
376 4 7 105 251 394 -1
377 3 7 105 250 394 -1
378 3 7 106 249 393 -1
379 5 7 107 250 393 -1
380 6 7 106 250 392 -1
381 4 7 105 250 393 -1
382 2 7 104 251 393 -1
383 2 7 104 251 392 -1
384 2 7 104 252 391 -1
385 2 7 105 252 392 -1
386 2 7 104 252 393 -1
387 4 7 103 251 394 -1
388 2 7 102 251 395 -1
389 2 7 101 250 395 -1
390 2 7 102 250 396 -1
391 2 7 102 251 397 -1
392 2 7 102 252 398 -1
393 2 7 103 253 399 -1
394 2 7 102 254 398 -1
395 2 7 103 255 397 -1
396 2 7 104 256 397 -1
397 4 7 103 255 398 -1
398 2 7 102 256 397 -1
399 4 7 102 255 397 -1
400 0 8 83 286 475 401
401 1 8 83 285 474 400
402 2 8 83 285 473 -1
403 3 8 82 285 472 -1
404 4 8 82 285 471 -1
405 5 8 82 286 470 -1
406 0 8 82 287 469 -1
407 6 8 83 287 470 -1
408 3 8 83 287 469 -1
409 5 8 83 287 468 -1
410 1 8 82 286 467 -1
411 7 8 82 285 468 -1
412 8 8 81 286 469 -1
413 6 8 80 285 469 -1
414 9 8 80 284 470 -1
415 8 8 80 283 469 -1
416 6 8 81 283 469 -1
417 6 8 80 282 470 -1
418 6 8 81 282 470 -1
419 7 8 80 282 471 -1
420 3 8 79 282 472 -1
421 5 8 79 281 472 -1
422 7 8 80 282 472 -1
423 5 8 81 282 472 -1
424 1 8 81 283 471 -1
425 3 8 80 284 472 -1
426 4 8 80 284 471 -1
427 3 8 80 283 471 -1
428 3 8 79 284 470 -1
429 5 8 79 285 471 -1
430 6 8 78 285 472 -1
431 4 8 79 286 473 -1
432 2 8 79 287 473 -1
433 2 8 79 287 472 -1
434 2 8 78 288 471 -1
435 2 8 79 288 472 -1
436 2 8 79 289 473 -1
437 4 8 78 289 472 -1
438 2 8 79 288 473 -1
439 2 8 80 289 473 -1
440 2 8 79 289 474 -1
441 2 8 78 289 474 -1
442 2 8 79 290 475 -1
443 2 8 79 291 476 -1
444 2 8 78 290 477 -1
445 2 8 79 291 477 -1
446 2 8 80 291 476 -1
447 4 8 81 292 475 -1
448 2 8 80 292 475 -1
449 4 8 79 292 474 -1
450 0 9 310 235 86 451
451 1 9 309 234 87 450
452 2 9 308 234 88 -1
453 3 9 308 233 88 -1
454 4 9 309 232 88 -1
455 5 9 310 233 87 -1
456 0 9 310 233 88 -1
457 6 9 310 234 87 -1
458 3 9 310 234 86 -1
459 5 9 310 233 85 -1
460 1 9 310 232 85 -1
461 7 9 309 231 85 -1
462 8 9 309 230 84 -1
463 6 9 308 229 83 -1
464 9 9 309 228 84 -1
465 8 9 310 229 85 -1
466 6 9 310 228 85 -1
467 6 9 309 227 84 -1
468 6 9 310 226 85 -1
469 7 9 311 226 86 -1
470 3 9 311 225 86 -1
471 5 9 310 224 87 -1
472 7 9 309 223 87 -1
473 5 9 308 224 88 -1
474 1 9 307 224 87 -1
475 3 9 308 225 87 -1
476 4 9 307 225 88 -1
477 3 9 308 225 89 -1
478 3 9 309 226 90 -1
479 5 9 309 225 90 -1
480 6 9 309 224 91 -1
481 4 9 310 225 90 -1
482 2 9 310 224 91 -1
483 2 9 309 224 92 -1
484 2 9 310 223 93 -1
485 2 9 309 223 92 -1
486 2 9 309 222 92 -1
487 4 9 308 221 93 -1
488 2 9 309 220 93 -1
489 2 9 310 221 94 -1
490 2 9 311 221 95 -1
491 2 9 310 221 96 -1
492 2 9 309 222 95 -1
493 2 9 308 221 96 -1
494 2 9 309 221 95 -1
495 2 9 309 222 94 -1
496 2 9 310 223 94 -1
497 4 9 309 223 94 -1
498 2 9 310 224 95 -1
499 4 9 309 224 94 -1
500 0 10 68 482 303 -1
501 1 10 67 482 302 -1
502 2 10 66 481 302 -1
503 3 10 66 480 303 -1
504 4 10 66 481 303 -1
505 5 10 66 480 302 -1
506 0 10 65 481 302 510
507 6 10 65 480 303 -1
508 3 10 65 479 302 -1
509 5 10 64 479 302 -1
510 1 10 65 480 302 506
511 7 10 66 479 301 -1
512 8 10 65 480 300 -1
513 6 10 64 480 300 -1
514 9 10 64 481 301 -1
515 8 10 65 481 300 -1
516 6 10 64 482 299 -1
517 6 10 63 482 300 -1
518 6 10 62 483 301 -1
519 7 10 62 482 301 -1
520 3 10 61 481 301 -1
521 5 10 61 480 302 -1
522 7 10 60 480 303 -1
523 5 10 60 479 304 -1
524 1 10 61 478 305 -1
525 3 10 60 478 306 -1
526 4 10 59 478 305 -1
527 3 10 60 478 305 -1
528 3 10 61 479 306 -1
529 5 10 60 479 307 -1
530 6 10 59 479 307 -1
531 4 10 58 479 306 -1
532 2 10 57 478 306 -1
533 2 10 56 478 307 -1
534 2 10 57 477 306 -1
535 2 10 58 477 307 -1
536 2 10 59 476 307 -1
537 4 10 60 475 306 -1
538 2 10 59 475 307 -1
539 2 10 58 474 306 -1
540 2 10 58 475 305 -1
541 2 10 58 475 304 -1
542 2 10 58 474 304 -1
543 2 10 57 473 303 -1
544 2 10 58 474 302 -1
545 2 10 59 474 303 -1
546 2 10 60 473 304 -1
547 4 10 61 472 303 -1
548 2 10 61 472 304 -1
549 4 10 60 472 303 -1
550 0 11 121 492 298 551
551 1 11 120 491 297 550
552 2 11 120 492 298 -1
553 3 11 119 491 298 -1
554 4 11 120 490 299 -1
555 5 11 121 491 298 -1
556 0 11 121 490 298 560
557 6 11 121 489 297 -1
558 3 11 120 489 297 -1
559 5 11 119 490 297 -1
560 1 11 120 490 297 556
561 7 11 120 489 298 -1
562 8 11 119 488 297 -1
563 6 11 118 488 296 -1
564 9 11 118 487 296 -1
565 8 11 119 486 296 -1
566 6 11 118 487 297 -1
567 6 11 117 488 297 -1
568 6 11 118 489 298 -1
569 7 11 117 490 297 -1
570 3 11 116 490 298 -1
571 5 11 117 491 298 -1
572 7 11 116 492 297 -1
573 5 11 116 491 296 -1
574 1 11 117 492 297 -1
575 3 11 118 492 296 -1
576 4 11 118 491 296 -1
577 3 11 118 492 297 -1
578 3 11 119 493 297 -1
579 5 11 120 492 296 -1
580 6 11 119 493 296 -1
581 4 11 120 493 296 -1
582 2 11 121 492 296 -1
583 2 11 122 493 296 -1
584 2 11 123 492 297 -1
585 2 11 124 493 297 -1
586 2 11 124 493 296 -1
587 4 11 124 492 295 -1
588 2 11 123 492 295 -1
589 2 11 123 491 294 -1
590 2 11 123 490 294 -1
591 2 11 123 489 295 -1
592 2 11 124 488 296 -1
593 2 11 124 487 295 -1
594 2 11 125 488 294 -1
595 2 11 124 489 295 -1
596 2 11 124 489 296 -1
597 4 11 125 489 296 -1
598 2 11 125 488 297 -1
599 4 11 124 487 296 -1
600 0 12 368 137 98 601
601 1 12 368 137 99 600
602 2 12 367 138 98 -1
603 3 12 366 139 99 -1
604 4 12 366 138 99 -1
605 5 12 365 138 98 -1
606 0 12 364 137 99 610
607 6 12 365 138 99 -1
608 3 12 366 138 100 -1
609 5 12 366 137 100 -1
610 1 12 365 136 100 606
611 7 12 364 137 100 -1
612 8 12 363 136 100 -1
613 6 12 364 135 99 -1
614 9 12 364 135 100 -1
615 8 12 365 134 101 -1
616 6 12 364 135 101 -1
617 6 12 365 135 101 -1
618 6 12 364 136 100 -1
619 7 12 364 137 101 -1
620 3 12 364 138 100 -1
621 5 12 363 139 99 -1
622 7 12 362 138 99 -1
623 5 12 362 137 99 -1
624 1 12 361 137 98 -1
625 3 12 362 136 98 -1
626 4 12 361 135 99 -1
627 3 12 362 136 100 -1
628 3 12 363 137 99 -1
629 5 12 363 137 100 -1
630 6 12 362 138 101 -1
631 4 12 361 137 100 -1
632 2 12 361 136 101 -1
633 2 12 360 137 102 -1
634 2 12 360 136 101 -1
635 2 12 360 137 101 -1
636 2 12 359 138 101 -1
637 4 12 360 139 101 -1
638 2 12 359 140 100 -1
639 2 12 358 139 99 -1
640 2 12 357 140 99 -1
641 2 12 356 139 98 -1
642 2 12 355 139 98 -1
643 2 12 356 138 97 -1
644 2 12 357 139 98 -1
645 2 12 358 139 97 -1
646 2 12 357 138 98 -1
647 4 12 357 138 97 -1
648 2 12 358 137 98 -1
649 4 12 358 136 97 -1
650 0 13 196 414 443 651
651 1 13 197 415 443 650
652 2 13 196 415 444 -1
653 3 13 197 416 443 -1
654 4 13 196 415 442 -1
655 5 13 197 414 442 -1
656 0 13 198 413 443 660
657 6 13 197 412 444 -1
658 3 13 197 413 445 -1
659 5 13 196 414 444 -1
660 1 13 197 414 444 656
661 7 13 198 415 444 -1
662 8 13 199 414 445 -1
663 6 13 200 414 446 -1
664 9 13 200 414 445 -1
665 8 13 201 414 445 -1
666 6 13 200 414 444 -1
667 6 13 200 413 445 -1
668 6 13 201 412 446 -1
669 7 13 200 412 447 -1
670 3 13 200 413 446 -1
671 5 13 200 413 447 -1
672 7 13 201 414 448 -1
673 5 13 200 415 447 -1
674 1 13 200 416 447 -1
675 3 13 201 416 447 -1
676 4 13 200 415 446 -1
677 3 13 199 416 446 -1
678 3 13 199 417 445 -1
679 5 13 200 416 444 -1
680 6 13 200 415 444 -1
681 4 13 201 414 443 -1
682 2 13 200 415 442 -1
683 2 13 200 416 442 -1
684 2 13 201 416 443 -1
685 2 13 202 415 443 -1
686 2 13 202 415 442 -1
687 4 13 201 415 443 -1
688 2 13 201 414 444 -1
689 2 13 202 414 444 -1
690 2 13 201 413 444 -1
691 2 13 202 413 445 -1
692 2 13 201 413 446 -1
693 2 13 202 414 445 -1
694 2 13 201 413 445 -1
695 2 13 201 412 444 -1
696 2 13 201 412 443 -1
697 4 13 202 412 443 -1
698 2 13 201 411 442 -1
699 4 13 201 412 442 -1
700 0 14 328 366 421 701
701 1 14 327 365 421 700
702 2 14 326 365 422 -1
703 3 14 325 366 422 -1
704 4 14 324 366 423 -1
705 5 14 324 365 423 -1
706 0 14 325 364 422 710
707 6 14 324 363 421 -1
708 3 14 325 363 422 -1
709 5 14 324 363 423 -1
710 1 14 324 364 422 706
711 7 14 324 365 422 -1
712 8 14 323 366 421 -1
713 6 14 322 366 422 -1
714 9 14 321 365 423 -1
715 8 14 321 366 423 -1
716 6 14 320 367 424 -1
717 6 14 321 367 424 -1
718 6 14 321 368 425 -1
719 7 14 321 367 426 -1
720 3 14 321 368 427 -1
721 5 14 322 367 427 -1
722 7 14 321 368 428 -1
723 5 14 320 367 427 -1
724 1 14 321 366 427 -1
725 3 14 320 366 426 -1
726 4 14 320 366 427 -1
727 3 14 319 367 426 -1
728 3 14 319 368 425 -1
729 5 14 318 367 424 -1
730 6 14 318 368 423 -1
731 4 14 319 368 424 -1
732 2 14 320 369 425 -1
733 2 14 319 370 426 -1
734 2 14 319 369 425 -1
735 2 14 318 368 424 -1
736 2 14 317 369 425 -1
737 4 14 316 368 424 -1
738 2 14 315 369 424 -1
739 2 14 316 370 423 -1
740 2 14 316 369 422 -1
741 2 14 317 369 421 -1
742 2 14 316 368 420 -1
743 2 14 316 368 419 -1
744 2 14 316 368 418 -1
745 2 14 317 369 418 -1
746 2 14 316 368 417 -1
747 4 14 315 368 416 -1
748 2 14 315 369 415 -1
749 4 14 315 370 415 -1
750 0 15 198 354 387 751
751 1 15 199 355 386 750
752 2 15 199 355 385 -1
753 3 15 200 355 386 -1
754 4 15 201 354 385 -1
755 5 15 200 354 385 -1
756 0 15 199 353 385 760
757 6 15 200 353 384 -1
758 3 15 200 354 384 -1
759 5 15 199 354 383 -1
760 1 15 199 354 384 756
761 7 15 200 355 385 -1
762 8 15 201 355 385 -1
763 6 15 200 356 385 -1
764 9 15 201 357 384 -1
765 8 15 202 358 384 -1
766 6 15 201 358 383 -1
767 6 15 201 358 382 -1
768 6 15 202 359 381 -1
769 7 15 203 360 380 -1
770 3 15 202 361 379 -1
771 5 15 201 361 378 -1
772 7 15 201 362 377 -1
773 5 15 202 362 376 -1
774 1 15 203 362 376 -1
775 3 15 204 362 375 -1
776 4 15 205 362 375 -1
777 3 15 205 362 376 -1
778 3 15 205 362 377 -1
779 5 15 205 361 378 -1
780 6 15 204 361 379 -1
781 4 15 203 360 378 -1
782 2 15 203 359 378 -1
783 2 15 204 358 378 -1
784 2 15 205 358 379 -1
785 2 15 205 357 379 -1
786 2 15 204 357 379 -1
787 4 15 204 356 378 -1
788 2 15 203 355 379 -1
789 2 15 203 354 379 -1
790 2 15 202 355 379 -1
791 2 15 202 356 378 -1
792 2 15 202 356 377 -1
793 2 15 202 357 376 -1
794 2 15 203 356 375 -1
795 2 15 204 355 374 -1
796 2 15 204 355 373 -1
797 4 15 203 354 373 -1
798 2 15 202 355 374 -1
799 4 15 202 355 373 -1
800 0 16 279 15 462 801
801 1 16 280 14 462 800
802 2 16 281 15 462 -1
803 3 16 280 16 461 -1
804 4 16 281 16 461 -1
805 5 16 282 15 462 -1
806 0 16 282 15 461 -1
807 6 16 283 16 460 -1
808 3 16 282 15 459 -1
809 5 16 283 14 460 -1
810 1 16 284 14 459 -1
811 7 16 285 13 459 -1
812 8 16 284 14 458 -1
813 6 16 284 15 457 -1
814 9 16 283 16 458 -1
815 8 16 284 17 459 -1
816 6 16 283 18 459 -1
817 6 16 282 19 460 -1
818 6 16 281 18 460 -1
819 7 16 281 17 459 -1
820 3 16 282 16 459 -1
821 5 16 281 15 458 -1
822 7 16 281 16 457 -1
823 5 16 281 16 456 -1
824 1 16 281 15 457 -1
825 3 16 280 15 458 -1
826 4 16 281 14 459 -1
827 3 16 280 15 460 -1
828 3 16 279 15 459 -1
829 5 16 278 14 460 -1
830 6 16 277 14 461 -1
831 4 16 277 13 461 -1
832 2 16 276 14 460 -1
833 2 16 275 13 461 -1
834 2 16 274 12 460 -1
835 2 16 275 11 461 -1
836 2 16 276 12 460 -1
837 4 16 275 12 461 -1
838 2 16 274 13 462 -1
839 2 16 274 12 463 -1
840 2 16 273 11 463 -1
841 2 16 272 11 464 -1
842 2 16 272 11 463 -1
843 2 16 273 11 464 -1
844 2 16 272 12 463 -1
845 2 16 272 13 464 -1
846 2 16 273 13 464 -1
847 4 16 274 14 464 -1
848 2 16 275 13 463 -1
849 4 16 274 14 463 -1
850 0 17 300 399 397 851
851 1 17 299 400 396 850
852 2 17 299 399 397 -1
853 3 17 299 399 398 -1
854 4 17 298 398 399 -1
855 5 17 297 398 400 -1
856 0 17 298 397 401 -1
857 6 17 298 396 402 -1
858 3 17 297 395 402 -1
859 5 17 297 396 403 -1
860 1 17 296 397 404 -1
861 7 17 295 398 403 -1
862 8 17 296 398 403 -1
863 6 17 297 397 402 -1
864 9 17 297 397 403 -1
865 8 17 296 398 404 -1
866 6 17 297 399 403 -1
867 6 17 298 400 404 -1
868 6 17 298 401 404 -1
869 7 17 299 401 403 -1
870 3 17 298 400 402 -1
871 5 17 299 401 401 -1
872 7 17 299 401 400 -1
873 5 17 300 400 400 -1
874 1 17 300 400 401 -1
875 3 17 300 399 401 -1
876 4 17 300 398 402 -1
877 3 17 301 399 401 -1
878 3 17 302 399 400 -1
879 5 17 302 398 400 -1
880 6 17 303 398 400 -1
881 4 17 302 399 401 -1
882 2 17 301 400 400 -1
883 2 17 300 401 399 -1
884 2 17 300 401 400 -1
885 2 17 301 402 400 -1
886 2 17 300 403 400 -1
887 4 17 299 403 399 -1
888 2 17 299 403 400 -1
889 2 17 300 403 401 -1
890 2 17 299 404 400 -1
891 2 17 298 405 399 -1
892 2 17 298 404 398 -1
893 2 17 297 403 398 -1
894 2 17 297 402 397 -1
895 2 17 298 401 397 -1
896 2 17 298 401 396 -1
897 4 17 299 402 397 -1
898 2 17 300 403 397 -1
899 4 17 301 402 397 -1
900 0 18 37 157 397 901
901 1 18 38 158 397 900
902 2 18 39 159 398 -1
903 3 18 38 160 399 -1
904 4 18 38 160 398 -1
905 5 18 37 160 399 -1
906 0 18 37 161 399 910
907 6 18 37 161 400 -1
908 3 18 36 160 401 -1
909 5 18 36 161 400 -1
910 1 18 36 160 399 906
911 7 18 35 159 399 -1
912 8 18 35 159 400 -1
913 6 18 36 159 401 -1
914 9 18 35 158 402 -1
915 8 18 34 158 402 -1
916 6 18 33 159 402 -1
917 6 18 34 160 402 -1
918 6 18 34 161 402 -1
919 7 18 35 160 402 -1
920 3 18 35 160 401 -1
921 5 18 34 161 401 -1
922 7 18 34 162 402 -1
923 5 18 33 163 401 -1
924 1 18 33 164 401 -1
925 3 18 34 164 400 -1
926 4 18 35 164 399 -1
927 3 18 36 163 398 -1
928 3 18 35 163 399 -1
929 5 18 35 162 400 -1
930 6 18 34 161 399 -1
931 4 18 35 160 398 -1
932 2 18 34 159 397 -1
933 2 18 33 159 398 -1
934 2 18 34 160 397 -1
935 2 18 35 161 398 -1
936 2 18 34 162 398 -1
937 4 18 33 163 399 -1
938 2 18 32 164 398 -1
939 2 18 32 165 397 -1
940 2 18 33 165 397 -1
941 2 18 34 166 396 -1
942 2 18 33 166 396 -1
943 2 18 34 167 396 -1
944 2 18 34 168 397 -1
945 2 18 35 169 397 -1
946 2 18 36 168 398 -1
947 4 18 35 169 398 -1
948 2 18 34 170 399 -1
949 4 18 34 170 398 -1
950 0 19 338 15 283 951
951 1 19 338 16 283 950
952 2 19 338 16 284 -1
953 3 19 339 16 285 -1
954 4 19 339 15 286 -1
955 5 19 338 15 287 -1
956 0 19 338 16 287 -1
957 6 19 339 15 287 -1
958 3 19 340 16 286 -1
959 5 19 341 15 287 -1
960 1 19 341 15 286 -1
961 7 19 340 15 287 -1
962 8 19 339 15 288 -1
963 6 19 339 14 287 -1
964 9 19 338 13 286 -1
965 8 19 338 13 287 -1
966 6 19 338 14 288 -1
967 6 19 339 14 288 -1
968 6 19 340 14 289 -1
969 7 19 341 14 288 -1
970 3 19 342 13 289 -1
971 5 19 343 12 289 -1
972 7 19 344 11 288 -1
973 5 19 344 10 287 -1
974 1 19 344 9 286 -1
975 3 19 344 10 285 -1
976 4 19 345 10 285 -1
977 3 19 344 10 284 -1
978 3 19 345 10 283 -1
979 5 19 346 10 283 -1
980 6 19 346 11 284 -1
981 4 19 347 12 285 -1
982 2 19 348 11 284 -1
983 2 19 349 10 284 -1
984 2 19 348 9 283 -1
985 2 19 349 10 283 -1
986 2 19 350 10 284 -1
987 4 19 349 11 285 -1
988 2 19 349 12 284 -1
989 2 19 349 13 285 -1
990 2 19 349 14 286 -1
991 2 19 349 13 286 -1
992 2 19 350 12 287 -1
993 2 19 351 12 287 -1
994 2 19 350 11 286 -1
995 2 19 349 11 286 -1
996 2 19 349 11 287 -1
997 4 19 350 12 288 -1
998 2 19 349 12 289 -1
999 4 19 350 11 288 -1
1000 0 20 192 280 170 1001
1001 1 20 192 281 170 1000
1002 2 20 192 280 169 -1
1003 3 20 191 279 169 -1
1004 4 20 190 280 170 -1
1005 5 20 190 279 170 -1
1006 0 20 191 278 170 1010
1007 6 20 190 279 169 -1
1008 3 20 191 279 170 -1
1009 5 20 190 278 170 -1
1010 1 20 191 277 169 1006
1011 7 20 192 277 168 -1
1012 8 20 193 278 167 -1
1013 6 20 194 279 166 -1
1014 9 20 195 280 165 -1
1015 8 20 195 279 165 -1
1016 6 20 196 280 166 -1
1017 6 20 196 281 166 -1
1018 6 20 196 281 165 -1
1019 7 20 196 282 165 -1
1020 3 20 196 283 165 -1
1021 5 20 195 282 164 -1
1022 7 20 196 282 163 -1
1023 5 20 196 283 164 -1
1024 1 20 196 284 165 -1
1025 3 20 197 285 166 -1
1026 4 20 196 285 167 -1
1027 3 20 195 286 167 -1
1028 3 20 196 287 168 -1
1029 5 20 196 288 167 -1
1030 6 20 197 288 166 -1
1031 4 20 196 289 165 -1
1032 2 20 197 288 164 -1
1033 2 20 198 289 165 -1
1034 2 20 199 289 166 -1
1035 2 20 198 290 165 -1
1036 2 20 197 289 165 -1
1037 4 20 196 289 166 -1
1038 2 20 195 288 167 -1
1039 2 20 196 287 166 -1
1040 2 20 197 286 167 -1
1041 2 20 196 285 166 -1
1042 2 20 196 286 165 -1
1043 2 20 195 285 165 -1
1044 2 20 196 285 165 -1
1045 2 20 196 285 164 -1
1046 2 20 197 285 164 -1
1047 4 20 197 285 165 -1
1048 2 20 198 286 166 -1
1049 4 20 197 287 165 -1
1050 0 21 233 87 133 1051
1051 1 21 232 87 134 1050
1052 2 21 233 88 135 -1
1053 3 21 234 87 135 -1
1054 4 21 235 88 134 -1
1055 5 21 236 89 135 -1
1056 0 21 236 88 136 1060
1057 6 21 236 89 136 -1
1058 3 21 237 89 137 -1
1059 5 21 238 88 136 -1
1060 1 21 237 89 135 1056
1061 7 21 237 90 136 -1
1062 8 21 238 89 135 -1
1063 6 21 237 89 134 -1
1064 9 21 237 88 135 -1
1065 8 21 238 88 134 -1
1066 6 21 239 88 133 -1
1067 6 21 238 89 132 -1
1068 6 21 239 88 131 -1
1069 7 21 240 88 132 -1
1070 3 21 241 87 131 -1
1071 5 21 241 88 132 -1
1072 7 21 242 89 131 -1
1073 5 21 243 88 131 -1
1074 1 21 243 88 130 -1
1075 3 21 243 89 130 -1
1076 4 21 243 90 130 -1
1077 3 21 242 89 129 -1
1078 3 21 241 90 130 -1
1079 5 21 240 90 130 -1
1080 6 21 240 90 129 -1
1081 4 21 240 91 128 -1
1082 2 21 241 92 128 -1
1083 2 21 240 93 127 -1
1084 2 21 241 93 127 -1
1085 2 21 240 94 128 -1
1086 2 21 241 93 128 -1
1087 4 21 240 94 129 -1
1088 2 21 241 94 130 -1
1089 2 21 240 93 131 -1
1090 2 21 239 94 130 -1
1091 2 21 238 95 130 -1
1092 2 21 239 95 131 -1
1093 2 21 239 94 132 -1
1094 2 21 240 95 132 -1
1095 2 21 241 96 133 -1
1096 2 21 241 95 134 -1
1097 4 21 240 96 135 -1
1098 2 21 239 95 134 -1
1099 4 21 239 96 133 -1
1100 0 22 63 52 282 1101
1101 1 22 62 51 281 1100
1102 2 22 61 51 280 -1
1103 3 22 60 51 279 -1
1104 4 22 60 52 280 -1
1105 5 22 59 52 280 -1
1106 0 22 58 53 280 1110
1107 6 22 57 54 280 -1
1108 3 22 58 54 280 -1
1109 5 22 59 54 279 -1
1110 1 22 58 53 279 1106
1111 7 22 57 53 279 -1
1112 8 22 57 53 280 -1
1113 6 22 58 52 279 -1
1114 9 22 59 51 279 -1
1115 8 22 59 52 279 -1
1116 6 22 60 53 280 -1
1117 6 22 61 52 281 -1
1118 6 22 61 51 281 -1
1119 7 22 61 50 282 -1
1120 3 22 62 49 283 -1
1121 5 22 63 50 282 -1
1122 7 22 63 49 282 -1
1123 5 22 63 48 282 -1
1124 1 22 63 49 281 -1
1125 3 22 64 50 281 -1
1126 4 22 65 49 281 -1
1127 3 22 66 48 280 -1
1128 3 22 66 48 281 -1
1129 5 22 65 49 282 -1
1130 6 22 66 50 283 -1
1131 4 22 65 50 282 -1
1132 2 22 65 50 281 -1
1133 2 22 66 50 280 -1
1134 2 22 65 50 279 -1
1135 2 22 66 51 278 -1
1136 2 22 66 50 277 -1
1137 4 22 67 51 277 -1
1138 2 22 67 51 278 -1
1139 2 22 67 51 279 -1
1140 2 22 66 51 279 -1
1141 2 22 65 50 278 -1
1142 2 22 66 51 277 -1
1143 2 22 66 52 278 -1
1144 2 22 65 53 277 -1
1145 2 22 66 53 277 -1
1146 2 22 67 53 277 -1
1147 4 22 68 52 278 -1
1148 2 22 67 52 277 -1
1149 4 22 67 53 276 -1
1150 0 23 32 334 120 1160
1151 1 23 31 334 120 1156
1152 2 23 31 334 119 -1
1153 3 23 30 335 119 -1
1154 4 23 30 335 120 -1
1155 5 23 31 336 121 -1
1156 0 23 32 335 120 1151
1157 6 23 33 335 120 -1
1158 3 23 33 334 119 -1
1159 5 23 33 335 119 -1
1160 1 23 33 334 120 1150
1161 7 23 34 333 121 -1
1162 8 23 34 333 120 -1
1163 6 23 33 332 119 -1
1164 9 23 34 333 118 -1
1165 8 23 33 333 119 -1
1166 6 23 34 332 119 -1
1167 6 23 34 331 119 -1
1168 6 23 35 332 118 -1
1169 7 23 36 331 119 -1
1170 3 23 35 332 120 -1
1171 5 23 34 332 120 -1
1172 7 23 33 331 121 -1
1173 5 23 33 332 121 -1
1174 1 23 34 332 122 -1
1175 3 23 34 333 122 -1
1176 4 23 34 334 122 -1
1177 3 23 35 335 122 -1
1178 3 23 34 335 121 -1
1179 5 23 35 334 122 -1
1180 6 23 35 335 123 -1
1181 4 23 35 335 124 -1
1182 2 23 35 336 124 -1
1183 2 23 34 336 124 -1
1184 2 23 33 336 125 -1
1185 2 23 34 337 126 -1
1186 2 23 35 338 126 -1
1187 4 23 34 339 126 -1
1188 2 23 35 340 125 -1
1189 2 23 35 340 126 -1
1190 2 23 35 341 125 -1
1191 2 23 35 342 124 -1
1192 2 23 36 341 123 -1
1193 2 23 37 340 122 -1
1194 2 23 37 339 121 -1
1195 2 23 38 338 122 -1
1196 2 23 39 338 121 -1
1197 4 23 39 339 120 -1
1198 2 23 39 340 121 -1
1199 4 23 38 340 122 -1
1200 0 24 184 15 79 -1
1201 1 24 183 15 80 1206
1202 2 24 184 16 80 -1
1203 3 24 185 16 80 -1
1204 4 24 184 15 81 -1
1205 5 24 183 15 82 -1
1206 0 24 183 15 81 1201
1207 6 24 184 16 82 -1
1208 3 24 185 17 81 -1
1209 5 24 185 17 80 -1
1210 1 24 184 16 79 -1
1211 7 24 185 16 78 -1
1212 8 24 185 16 77 -1
1213 6 24 186 17 78 -1
1214 9 24 187 16 79 -1
1215 8 24 187 17 80 -1
1216 6 24 186 18 80 -1
1217 6 24 185 19 81 -1
1218 6 24 186 19 81 -1
1219 7 24 187 19 81 -1
1220 3 24 188 19 82 -1
1221 5 24 189 19 81 -1
1222 7 24 189 19 82 -1
1223 5 24 190 20 81 -1
1224 1 24 191 20 81 -1
1225 3 24 191 19 81 -1
1226 4 24 190 19 82 -1
1227 3 24 190 18 81 -1
1228 3 24 190 17 81 -1
1229 5 24 190 16 82 -1
1230 6 24 190 15 83 -1
1231 4 24 191 16 84 -1
1232 2 24 192 17 85 -1
1233 2 24 193 18 86 -1
1234 2 24 193 17 85 -1
1235 2 24 194 17 85 -1
1236 2 24 194 18 85 -1
1237 4 24 195 17 84 -1
1238 2 24 194 18 84 -1
1239 2 24 193 17 83 -1
1240 2 24 192 18 82 -1
1241 2 24 191 17 81 -1
1242 2 24 191 16 81 -1
1243 2 24 192 17 81 -1
1244 2 24 192 16 81 -1
1245 2 24 193 15 81 -1
1246 2 24 193 16 81 -1
1247 4 24 194 16 80 -1
1248 2 24 195 15 79 -1
1249 4 24 196 16 80 -1
1250 0 25 359 465 26 1251
1251 1 25 360 465 25 1250
1252 2 25 360 465 24 -1
1253 3 25 359 464 25 -1
1254 4 25 359 465 24 -1
1255 5 25 360 466 24 -1
1256 0 25 360 465 23 -1
1257 6 25 361 465 22 -1
1258 3 25 362 464 23 -1
1259 5 25 363 465 23 -1
1260 1 25 363 464 22 -1
1261 7 25 364 464 21 -1
1262 8 25 364 463 20 -1
1263 6 25 365 462 21 -1
1264 9 25 365 461 21 -1
1265 8 25 365 462 22 -1
1266 6 25 364 461 22 -1
1267 6 25 363 461 23 -1
1268 6 25 364 462 24 -1
1269 7 25 365 463 24 -1
1270 3 25 366 464 24 -1
1271 5 25 365 464 25 -1
1272 7 25 366 463 26 -1
1273 5 25 366 462 25 -1
1274 1 25 365 461 24 -1
1275 3 25 364 461 25 -1
1276 4 25 363 460 24 -1
1277 3 25 362 460 24 -1
1278 3 25 362 461 25 -1
1279 5 25 361 460 25 -1
1280 6 25 362 460 25 -1
1281 4 25 363 459 26 -1
1282 2 25 363 458 27 -1
1283 2 25 362 458 27 -1
1284 2 25 362 458 28 -1
1285 2 25 362 458 29 -1
1286 2 25 362 458 30 -1
1287 4 25 361 459 30 -1
1288 2 25 360 459 29 -1
1289 2 25 359 459 28 -1
1290 2 25 358 458 27 -1
1291 2 25 359 457 27 -1
1292 2 25 359 458 26 -1
1293 2 25 360 457 27 -1
1294 2 25 361 456 27 -1
1295 2 25 360 455 26 -1
1296 2 25 359 455 25 -1