ITEM: TIMESTEP
0
ITEM: NUMBER OF ATOMS
10000
ITEM: BOX BOUNDS pp pp pp
0 500
0 500
0 500
ITEM: ATOMS id type mol x y z bP
0 0 0 349 333 276 1
1 1 0 348 334 277 0
2 2 0 349 334 278 -1
3 3 0 349 335 278 -1
4 4 0 349 335 279 -1
5 5 0 350 336 279 -1
6 0 0 349 336 280 10
7 6 0 348 336 280 -1
8 3 0 348 337 279 -1
9 5 0 349 336 278 -1
10 1 0 348 336 279 6
11 7 0 347 337 279 -1
12 8 0 347 337 280 -1
13 6 0 348 338 281 -1
14 9 0 349 339 282 -1
15 8 0 350 339 283 -1
16 6 0 350 339 284 -1
17 6 0 349 340 283 -1
18 6 0 350 339 282 -1
19 7 0 351 338 282 -1
20 3 0 350 338 282 -1
21 5 0 350 339 281 -1
22 7 0 349 339 280 -1
23 5 0 348 340 281 -1
24 1 0 348 341 281 -1
25 3 0 349 342 280 -1
26 4 0 348 343 281 -1
27 3 0 347 342 280 -1
28 3 0 346 341 279 -1
29 5 0 347 341 279 -1
30 6 0 346 340 278 -1
31 4 0 346 340 277 -1
32 2 0 345 339 276 -1
33 2 0 346 338 275 -1
34 2 0 347 339 276 -1
35 2 0 348 340 277 -1
36 2 0 349 339 277 -1
37 4 0 349 340 278 -1
38 2 0 349 340 279 -1
39 2 0 350 339 280 -1
40 2 0 350 340 280 -1
41 2 0 349 340 280 -1
42 2 0 348 339 279 -1
43 2 0 347 338 280 -1
44 2 0 347 338 281 -1
45 2 0 347 337 282 -1
46 2 0 346 336 282 -1
47 4 0 347 335 283 -1
48 2 0 346 334 283 -1
49 4 0 347 333 282 -1
50 0 1 114 34 488 51
51 1 1 115 34 489 50
52 2 1 114 33 490 -1
53 3 1 114 32 491 -1
54 4 1 114 31 492 -1
55 5 1 113 31 492 -1
56 0 1 114 31 491 60
57 6 1 113 30 490 -1
58 3 1 114 29 491 -1
59 5 1 113 30 491 -1
60 1 1 114 30 491 56
61 7 1 115 31 491 -1
62 8 1 116 31 491 -1
63 6 1 115 30 491 -1
64 9 1 116 30 491 -1
65 8 1 117 30 492 -1
66 6 1 118 30 493 -1
67 6 1 119 30 492 -1
68 6 1 120 30 492 -1
69 7 1 121 30 491 -1
70 3 1 121 29 490 -1
71 5 1 120 29 490 -1
72 7 1 119 29 489 -1
73 5 1 118 28 489 -1
74 1 1 119 27 488 -1
75 3 1 118 26 489 -1
76 4 1 119 26 489 -1
77 3 1 118 26 490 -1
78 3 1 118 27 489 -1
79 5 1 119 26 488 -1
80 6 1 120 26 489 -1
81 4 1 121 27 489 -1
82 2 1 122 26 488 -1
83 2 1 123 26 489 -1
84 2 1 122 27 488 -1
85 2 1 122 26 487 -1
86 2 1 123 27 486 -1
87 4 1 123 28 485 -1
88 2 1 124 29 484 -1
89 2 1 124 28 483 -1
90 2 1 123 28 484 -1
91 2 1 123 29 483 -1
92 2 1 123 28 482 -1
93 2 1 124 27 481 -1
94 2 1 125 28 481 -1
95 2 1 125 28 480 -1
96 2 1 126 27 479 -1
97 4 1 125 27 479 -1
98 2 1 124 28 478 -1
99 4 1 125 28 478 -1
100 0 2 141 104 176 101
101 1 2 142 104 176 100
102 2 2 142 103 175 -1
103 3 2 141 102 174 -1
104 4 2 140 102 174 -1
105 5 2 139 103 174 -1
106 0 2 138 103 173 110
107 6 2 138 104 172 -1
108 3 2 137 104 171 -1
109 5 2 136 104 172 -1
110 1 2 137 104 172 106
111 7 2 137 104 173 -1
112 8 2 136 105 173 -1
113 6 2 135 104 173 -1
114 9 2 135 104 174 -1
115 8 2 134 105 174 -1
116 6 2 135 106 175 -1
117 6 2 136 106 176 -1
118 6 2 135 105 175 -1
119 7 2 136 104 174 -1
120 3 2 136 105 174 -1
121 5 2 136 106 174 -1
122 7 2 136 106 175 -1
123 5 2 135 105 176 -1
124 1 2 134 105 176 -1
125 3 2 134 104 177 -1
126 4 2 133 105 177 -1
127 3 2 132 105 178 -1
128 3 2 132 106 178 -1
129 5 2 132 106 179 -1
130 6 2 133 105 179 -1
131 4 2 134 105 180 -1
132 2 2 134 104 179 -1
133 2 2 133 103 178 -1
134 2 2 134 104 178 -1
135 2 2 134 105 178 -1
136 2 2 134 106 179 -1
137 4 2 135 107 179 -1
138 2 2 136 108 178 -1
139 2 2 137 108 179 -1
140 2 2 137 108 180 -1
141 2 2 136 108 179 -1
142 2 2 136 107 178 -1
143 2 2 135 106 179 -1
144 2 2 136 105 179 -1
145 2 2 137 105 178 -1
146 2 2 138 104 179 -1
147 4 2 137 104 180 -1
148 2 2 137 105 181 -1
149 4 2 137 105 180 -1
150 0 3 484 333 268 160
151 1 3 483 334 269 -1
152 2 3 483 335 268 -1
153 3 3 482 334 268 -1
154 4 3 483 333 269 -1
155 5 3 482 332 270 -1
156 0 3 482 332 271 -1
157 6 3 483 332 270 -1
158 3 3 483 332 269 -1
159 5 3 482 333 268 -1
160 1 3 483 333 267 150
161 7 3 482 334 266 -1
162 8 3 482 335 266 -1
163 6 3 482 335 265 -1
164 9 3 483 336 266 -1
165 8 3 484 337 265 -1
166 6 3 485 337 264 -1
167 6 3 485 338 264 -1
168 6 3 484 338 264 -1
169 7 3 483 339 264 -1
170 3 3 482 340 263 -1
171 5 3 482 340 262 -1
172 7 3 481 339 263 -1
173 5 3 480 340 263 -1
174 1 3 479 341 262 -1
175 3 3 478 341 263 -1
176 4 3 478 340 264 -1
177 3 3 477 341 264 -1
178 3 3 478 341 265 -1
179 5 3 477 342 266 -1
180 6 3 476 343 265 -1
181 4 3 475 343 264 -1
182 2 3 475 344 265 -1
183 2 3 474 344 265 -1
184 2 3 473 343 266 -1
185 2 3 474 342 265 -1
186 2 3 475 342 265 -1
187 4 3 475 341 266 -1
188 2 3 475 340 265 -1
189 2 3 474 341 264 -1
190 2 3 475 341 263 -1
191 2 3 474 342 262 -1
192 2 3 473 342 261 -1
193 2 3 472 341 260 -1
194 2 3 473 341 260 -1
195 2 3 474 340 259 -1
196 2 3 474 340 260 -1
197 4 3 473 340 261 -1
198 2 3 472 339 261 -1
199 4 3 471 338 260 -1
200 0 4 293 191 261 201
201 1 4 294 192 262 200
202 2 4 295 192 261 -1
203 3 4 296 193 260 -1
204 4 4 296 192 259 -1
205 5 4 297 192 258 -1
206 0 4 296 191 257 210
207 6 4 295 192 257 -1
208 3 4 295 192 256 -1
209 5 4 296 192 257 -1
210 1 4 295 191 258 206
211 7 4 296 190 258 -1
212 8 4 296 189 258 -1
213 6 4 295 189 259 -1
214 9 4 296 190 260 -1
215 8 4 297 191 260 -1
216 6 4 298 191 260 -1
217 6 4 297 192 260 -1
218 6 4 298 193 260 -1
219 7 4 299 194 259 -1
220 3 4 298 194 259 -1
221 5 4 299 194 258 -1
222 7 4 298 195 257 -1
223 5 4 297 194 257 -1
224 1 4 298 193 256 -1
225 3 4 297 193 256 -1
226 4 4 296 192 256 -1
227 3 4 297 191 257 -1
228 3 4 298 190 258 -1
229 5 4 299 191 258 -1
230 6 4 299 190 259 -1
231 4 4 300 191 260 -1
232 2 4 301 191 260 -1
233 2 4 301 192 260 -1
234 2 4 301 193 260 -1
235 2 4 302 193 259 -1
236 2 4 303 192 259 -1
237 4 4 304 192 258 -1
238 2 4 303 193 257 -1
239 2 4 302 194 258 -1
240 2 4 302 195 257 -1
241 2 4 303 195 258 -1
242 2 4 302 196 258 -1
243 2 4 301 197 259 -1
244 2 4 301 196 260 -1
245 2 4 301 196 261 -1
246 2 4 301 195 261 -1
247 4 4 302 196 261 -1
248 2 4 302 197 262 -1
249 4 4 302 198 261 -1
250 0 5 170 98 79 251
251 1 5 169 98 80 250
252 2 5 169 98 81 -1
253 3 5 169 97 82 -1
254 4 5 168 97 82 -1
255 5 5 167 98 82 -1
256 0 5 167 99 81 274
257 6 5 167 98 80 -1
258 3 5 168 99 80 -1
259 5 5 168 98 79 -1
260 1 5 167 97 79 -1
261 7 5 168 96 78 -1
262 8 5 167 97 78 -1
263 6 5 167 98 78 -1
264 9 5 166 99 77 -1
265 8 5 167 100 76 -1
266 6 5 167 100 75 -1
267 6 5 167 99 76 -1
268 6 5 166 100 76 -1
269 7 5 166 101 77 -1
270 3 5 167 100 77 -1
271 5 5 167 99 77 -1
272 7 5 166 98 78 -1
273 5 5 166 98 79 -1
274 1 5 167 99 80 256
275 3 5 166 98 80 -1
276 4 5 167 98 81 -1
277 3 5 167 99 82 -1
278 3 5 168 100 81 -1
279 5 5 167 101 81 -1
280 6 5 168 102 80 -1
281 4 5 168 101 80 -1
282 2 5 167 101 79 -1
283 2 5 168 102 78 -1
284 2 5 168 102 79 -1
285 2 5 167 102 79 -1
286 2 5 166 101 80 -1
287 4 5 167 100 79 -1
288 2 5 168 100 80 -1
289 2 5 168 100 79 -1
290 2 5 169 101 78 -1
291 2 5 169 102 79 -1
292 2 5 170 101 80 -1
293 2 5 171 102 80 -1
294 2 5 170 103 81 -1
295 2 5 169 103 81 -1
296 2 5 168 103 82 -1
297 4 5 168 102 82 -1
298 2 5 167 103 81 -1
299 4 5 166 104 82 -1
300 0 6 246 173 406 301
301 1 6 246 174 407 300
302 2 6 247 173 406 -1
303 3 6 247 174 405 -1
304 4 6 248 175 404 -1
305 5 6 249 174 405 -1
306 0 6 249 174 406 310
307 6 6 248 174 406 -1
308 3 6 249 175 407 -1
309 5 6 249 176 406 -1
310 1 6 248 175 405 306
311 7 6 248 174 405 -1
312 8 6 249 175 406 -1
313 6 6 248 176 405 -1
314 9 6 248 176 406 -1
315 8 6 249 177 406 -1
316 6 6 249 178 405 -1
317 6 6 248 179 406 -1
318 6 6 247 178 407 -1
319 7 6 248 178 406 -1
320 3 6 248 177 405 -1
321 5 6 247 176 405 -1
322 7 6 248 177 404 -1
323 5 6 247 177 403 -1
324 1 6 247 178 404 -1
325 3 6 248 177 403 -1
326 4 6 248 176 403 -1
327 3 6 248 175 402 -1
328 3 6 247 176 402 -1
329 5 6 248 175 403 -1
330 6 6 247 176 404 -1
331 4 6 246 175 405 -1
332 2 6 246 174 406 -1
333 2 6 245 175 406 -1
334 2 6 246 175 406 -1
335 2 6 245 176 405 -1
336 2 6 246 176 405 -1
337 4 6 245 177 404 -1
338 2 6 245 178 404 -1
339 2 6 246 178 405 -1
340 2 6 246 179 406 -1
341 2 6 245 180 406 -1
342 2 6 245 181 407 -1
343 2 6 246 181 406 -1
344 2 6 245 182 406 -1
345 2 6 244 181 406 -1
346 2 6 245 182 407 -1
347 4 6 244 183 407 -1
348 2 6 243 182 408 -1
349 4 6 242 182 408 -1
350 0 7 122 122 384 351
351 1 7 121 123 385 350
352 2 7 120 124 385 -1
353 3 7 119 123 386 -1
354 4 7 119 124 386 -1
355 5 7 118 124 385 -1
356 0 7 117 125 385 374
357 6 7 117 124 385 -1
358 3 7 117 125 384 -1
359 5 7 118 125 383 -1
360 1 7 118 126 383 -1
361 7 7 119 127 384 -1
362 8 7 120 127 385 -1
363 6 7 120 127 384 -1
364 9 7 120 126 383 -1
365 8 7 119 125 382 -1
366 6 7 118 126 382 -1
367 6 7 117 126 381 -1
368 6 7 117 126 382 -1
369 7 7 116 125 382 -1
370 3 7 116 124 383 -1
371 5 7 115 124 384 -1
372 7 7 116 124 385 -1
373 5 7 116 124 386 -1
374 1 7 117 124 386 356
375 3 7 117 124 387 -1
376 4 7 118 123 386 -1
377 3 7 118 122 385 -1
378 3 7 118 123 385 -1
379 5 7 119 122 384 -1
380 6 7 119 122 383 -1
381 4 7 118 122 382 -1
382 2 7 117 122 381 -1
383 2 7 118 122 381 -1
384 2 7 118 123 382 -1
385 2 7 119 124 382 -1
386 2 7 119 123 383 -1
387 4 7 119 123 382 -1
388 2 7 120 122 381 -1
389 2 7 119 122 380 -1
390 2 7 120 121 379 -1
391 2 7 120 122 378 -1
392 2 7 119 121 378 -1
393 2 7 118 122 377 -1
394 2 7 117 122 377 -1
395 2 7 117 123 376 -1
396 2 7 116 124 377 -1
397 4 7 117 123 377 -1
398 2 7 116 122 376 -1
399 4 7 117 121 376 -1
400 0 8 466 294 9 401
401 1 8 467 295 9 400
402 2 8 466 294 8 -1
403 3 8 465 294 7 -1
404 4 8 465 294 6 -1
405 5 8 466 294 5 -1
406 0 8 465 294 5 410
407 6 8 465 295 4 -1
408 3 8 465 294 4 -1
409 5 8 465 295 5 -1
410 1 8 464 295 6 406
411 7 8 464 296 6 -1
412 8 8 463 296 6 -1
413 6 8 463 297 6 -1
414 9 8 462 298 6 -1
415 8 8 461 298 7 -1
416 6 8 461 297 8 -1
417 6 8 462 297 7 -1
418 6 8 462 298 8 -1
419 7 8 461 299 9 -1
420 3 8 460 298 8 -1
421 5 8 461 297 9 -1
422 7 8 460 297 8 -1
423 5 8 459 297 9 -1
424 1 8 458 297 8 -1
425 3 8 457 298 9 -1
426 4 8 456 299 9 -1
427 3 8 457 300 10 -1
428 3 8 457 299 11 -1
429 5 8 458 300 12 -1
430 6 8 457 300 13 -1
431 4 8 458 301 12 -1
432 2 8 459 301 13 -1
433 2 8 460 300 13 -1
434 2 8 459 301 12 -1
435 2 8 458 302 12 -1
436 2 8 457 302 13 -1
437 4 8 458 302 13 -1
438 2 8 457 301 14 -1
439 2 8 456 300 13 -1
440 2 8 455 300 13 -1
441 2 8 455 300 12 -1
442 2 8 456 300 11 -1
443 2 8 455 299 10 -1
444 2 8 454 298 10 -1
445 2 8 453 297 9 -1
446 2 8 453 297 8 -1
447 4 8 454 298 9 -1
448 2 8 453 298 9 -1
449 4 8 454 299 8 -1
450 0 9 478 206 386 451
451 1 9 479 205 386 450
452 2 9 479 205 385 -1
453 3 9 478 206 385 -1
454 4 9 479 206 384 -1
455 5 9 478 206 384 -1
456 0 9 479 205 383 460
457 6 9 479 206 383 -1
458 3 9 479 205 384 -1
459 5 9 478 204 384 -1
460 1 9 478 205 384 456
461 7 9 479 206 385 -1
462 8 9 480 207 385 -1
463 6 9 481 206 385 -1
464 9 9 480 206 385 -1
465 8 9 481 205 386 -1
466 6 9 480 204 385 -1
467 6 9 481 203 384 -1
468 6 9 481 202 385 -1
469 7 9 482 203 385 -1
470 3 9 482 202 385 -1
471 5 9 481 201 384 -1
472 7 9 480 201 385 -1
473 5 9 480 200 385 -1
474 1 9 479 200 385 -1
475 3 9 478 200 384 -1
476 4 9 477 200 383 -1
477 3 9 478 199 384 -1
478 3 9 479 198 385 -1
479 5 9 478 198 385 -1
480 6 9 478 198 386 -1
481 4 9 478 197 385 -1
482 2 9 478 196 386 -1
483 2 9 478 195 385 -1
484 2 9 479 196 386 -1
485 2 9 478 196 387 -1
486 2 9 477 196 386 -1
487 4 9 478 196 385 -1
488 2 9 479 196 385 -1
489 2 9 479 195 386 -1
490 2 9 480 194 385 -1
491 2 9 481 195 384 -1
492 2 9 482 196 383 -1
493 2 9 483 197 382 -1
494 2 9 483 198 382 -1
495 2 9 482 197 382 -1
496 2 9 481 196 382 -1
497 4 9 482 196 382 -1
498 2 9 483 197 381 -1
499 4 9 483 198 380 -1
500 0 10 140 450 283 501
501 1 10 139 451 284 500
502 2 10 140 452 283 -1
503 3 10 141 453 283 -1
504 4 10 141 454 284 -1
505 5 10 142 455 285 -1
506 0 10 142 456 286 510
507 6 10 142 455 287 -1
508 3 10 143 455 287 -1
509 5 10 144 456 286 -1
510 1 10 143 456 287 506
511 7 10 142 457 286 -1
512 8 10 143 458 287 -1
513 6 10 143 457 287 -1
514 9 10 142 456 288 -1
515 8 10 142 456 289 -1
516 6 10 141 456 288 -1
517 6 10 140 455 289 -1
518 6 10 140 456 289 -1
519 7 10 139 457 289 -1
520 3 10 138 456 289 -1
521 5 10 137 456 290 -1
522 7 10 138 456 290 -1
523 5 10 137 457 290 -1
524 1 10 136 457 290 -1
525 3 10 135 457 290 -1
526 4 10 135 456 289 -1
527 3 10 136 456 289 -1
528 3 10 135 455 288 -1
529 5 10 136 454 287 -1
530 6 10 135 453 288 -1
531 4 10 135 452 288 -1
532 2 10 134 451 289 -1
533 2 10 133 452 288 -1
534 2 10 132 451 287 -1
535 2 10 131 452 288 -1
536 2 10 131 451 288 -1
537 4 10 130 452 288 -1
538 2 10 131 452 289 -1
539 2 10 130 452 290 -1
540 2 10 130 452 289 -1
541 2 10 129 453 290 -1
542 2 10 128 453 289 -1
543 2 10 127 452 288 -1
544 2 10 126 453 289 -1
545 2 10 127 453 288 -1
546 2 10 126 454 287 -1
547 4 10 126 454 288 -1
548 2 10 126 455 288 -1
549 4 10 125 454 289 -1
550 0 11 382 85 33 551
551 1 11 383 84 33 550
552 2 11 383 83 34 -1
553 3 11 383 83 35 -1
554 4 11 383 82 35 -1
555 5 11 384 82 35 -1
556 0 11 384 83 34 560
557 6 11 385 82 33 -1
558 3 11 384 83 32 -1
559 5 11 384 82 33 -1
560 1 11 383 83 33 556
561 7 11 384 84 33 -1
562 8 11 385 84 32 -1
563 6 11 385 83 31 -1
564 9 11 384 82 31 -1
565 8 11 385 81 32 -1
566 6 11 386 81 31 -1
567 6 11 387 82 30 -1
568 6 11 387 81 29 -1
569 7 11 386 82 29 -1
570 3 11 385 83 29 -1
571 5 11 385 84 29 -1
572 7 11 386 83 30 -1
573 5 11 387 82 29 -1
574 1 11 386 82 28 -1
575 3 11 387 83 29 -1
576 4 11 388 83 30 -1
577 3 11 388 83 31 -1
578 3 11 388 82 30 -1
579 5 11 389 83 29 -1
580 6 11 389 84 29 -1
581 4 11 388 85 28 -1
582 2 11 388 86 28 -1
583 2 11 388 87 27 -1
584 2 11 388 87 26 -1
585 2 11 389 87 26 -1
586 2 11 390 86 25 -1
587 4 11 390 85 26 -1
588 2 11 390 84 26 -1
589 2 11 391 85 25 -1
590 2 11 390 85 25 -1
591 2 11 391 86 24 -1
592 2 11 391 87 25 -1
593 2 11 392 87 25 -1
594 2 11 393 88 25 -1
595 2 11 394 88 26 -1
596 2 11 394 87 27 -1
597 4 11 393 88 26 -1
598 2 11 392 87 26 -1
599 4 11 393 87 26 -1
600 0 12 26 146 167 610
601 1 12 26 147 166 -1
602 2 12 26 146 165 -1
603 3 12 26 147 165 -1
604 4 12 27 148 166 -1
605 5 12 28 148 167 -1
606 0 12 29 147 168 -1
607 6 12 29 146 167 -1
608 3 12 28 146 167 -1
609 5 12 27 146 167 -1
610 1 12 27 145 167 600
611 7 12 28 145 168 -1
612 8 12 27 146 168 -1
613 6 12 26 146 168 -1
614 9 12 26 145 167 -1
615 8 12 25 145 168 -1
616 6 12 25 145 167 -1
617 6 12 24 146 168 -1
618 6 12 25 147 167 -1
619 7 12 24 148 166 -1
620 3 12 25 148 165 -1
621 5 12 24 149 165 -1
622 7 12 24 150 165 -1
623 5 12 25 149 166 -1
624 1 12 25 148 166 -1
625 3 12 24 148 165 -1
626 4 12 25 147 166 -1
627 3 12 26 148 167 -1
628 3 12 25 149 167 -1
629 5 12 24 149 167 -1
630 6 12 23 149 167 -1
631 4 12 22 148 168 -1
632 2 12 21 149 167 -1
633 2 12 20 148 168 -1
634 2 12 20 148 167 -1
635 2 12 20 147 167 -1
636 2 12 21 147 168 -1
637 4 12 21 147 167 -1
638 2 12 20 147 168 -1
639 2 12 21 146 167 -1
640 2 12 20 145 166 -1
641 2 12 19 144 167 -1
642 2 12 18 145 167 -1
643 2 12 19 146 166 -1
644 2 12 20 146 167 -1
645 2 12 20 146 166 -1
646 2 12 21 145 167 -1
647 4 12 21 146 168 -1
648 2 12 22 145 168 -1
649 4 12 22 146 168 -1
650 0 13 154 172 67 651
651 1 13 153 173 66 650
652 2 13 152 173 65 -1
653 3 13 151 174 66 -1
654 4 13 152 175 66 -1
655 5 13 151 176 65 -1
656 0 13 150 175 65 660
657 6 13 150 176 66 -1
658 3 13 149 175 67 -1
659 5 13 150 175 66 -1
660 1 13 149 175 66 656
661 7 13 148 174 67 -1
662 8 13 147 173 67 -1
663 6 13 146 174 68 -1
664 9 13 147 175 68 -1
665 8 13 147 175 67 -1
666 6 13 148 175 68 -1
667 6 13 147 174 69 -1
668 6 13 148 173 70 -1
669 7 13 149 172 70 -1
670 3 13 150 172 69 -1
671 5 13 150 173 68 -1
672 7 13 150 174 69 -1
673 5 13 149 175 70 -1
674 1 13 149 174 69 -1
675 3 13 150 175 70 -1
676 4 13 150 175 69 -1
677 3 13 150 175 68 -1
678 3 13 149 175 68 -1
679 5 13 149 174 67 -1
680 6 13 148 173 67 -1
681 4 13 147 174 66 -1
682 2 13 146 173 66 -1
683 2 13 147 172 65 -1
684 2 13 148 173 66 -1
685 2 13 148 172 67 -1
686 2 13 149 172 67 -1
687 4 13 150 171 66 -1
688 2 13 151 171 67 -1
689 2 13 152 171 68 -1
690 2 13 153 171 68 -1
691 2 13 153 172 68 -1
692 2 13 154 171 69 -1
693 2 13 155 172 70 -1
694 2 13 155 171 70 -1
695 2 13 154 172 69 -1
696 2 13 154 173 69 -1
697 4 13 154 174 70 -1
698 2 13 154 174 71 -1
699 4 13 155 174 70 -1
700 0 14 357 17 433 710
701 1 14 358 18 433 706
702 2 14 357 19 433 -1
703 3 14 357 19 432 -1
704 4 14 358 19 432 -1
705 5 14 357 18 431 -1
706 0 14 357 18 432 701
707 6 14 357 18 433 -1
708 3 14 357 17 432 -1
709 5 14 356 16 431 -1
710 1 14 356 16 432 700
711 7 14 355 16 432 -1
712 8 14 355 17 431 -1
713 6 14 355 16 430 -1
714 9 14 355 15 430 -1
715 8 14 355 14 430 -1
716 6 14 356 13 429 -1
717 6 14 356 13 430 -1
718 6 14 355 14 431 -1
719 7 14 356 13 431 -1
720 3 14 356 14 431 -1
721 5 14 356 14 430 -1
722 7 14 356 14 429 -1
723 5 14 355 13 428 -1
724 1 14 354 12 428 -1
725 3 14 353 11 428 -1
726 4 14 353 12 427 -1
727 3 14 353 12 428 -1
728 3 14 353 11 429 -1
729 5 14 354 10 429 -1
730 6 14 353 10 429 -1
731 4 14 353 11 430 -1
732 2 14 352 11 429 -1
733 2 14 352 12 430 -1
734 2 14 352 13 430 -1
735 2 14 352 14 431 -1
736 2 14 353 14 431 -1
737 4 14 354 14 432 -1
738 2 14 353 13 431 -1
739 2 14 353 12 431 -1
740 2 14 352 12 431 -1
741 2 14 351 13 432 -1
742 2 14 350 14 432 -1
743 2 14 350 14 431 -1
744 2 14 351 14 430 -1
745 2 14 352 13 429 -1
746 2 14 353 14 430 -1
747 4 14 354 15 430 -1
748 2 14 355 15 429 -1
749 4 14 354 15 428 -1
750 0 15 138 22 477 751
751 1 15 138 23 478 750
752 2 15 138 23 479 -1
753 3 15 139 24 479 -1
754 4 15 139 24 480 -1
755 5 15 140 23 481 -1
756 0 15 141 24 482 760
757 6 15 140 23 483 -1
758 3 15 141 24 483 -1
759 5 15 142 23 482 -1
760 1 15 142 24 482 756
761 7 15 143 25 482 -1
762 8 15 144 25 481 -1
763 6 15 143 24 481 -1
764 9 15 144 24 482 -1
765 8 15 144 25 482 -1
766 6 15 144 26 483 -1
767 6 15 145 26 482 -1
768 6 15 144 27 482 -1
769 7 15 144 27 481 -1
770 3 15 144 26 482 -1
771 5 15 143 27 482 -1
772 7 15 142 26 481 -1
773 5 15 141 25 481 -1
774 1 15 141 26 482 -1
775 3 15 142 27 481 -1
776 4 15 143 27 480 -1
777 3 15 143 27 479 -1
778 3 15 144 27 480 -1
779 5 15 143 26 479 -1
780 6 15 144 27 478 -1
781 4 15 143 26 477 -1
782 2 15 143 27 478 -1
783 2 15 142 26 479 -1
784 2 15 143 25 478 -1
785 2 15 144 24 478 -1
786 2 15 143 23 477 -1
787 4 15 144 24 476 -1
788 2 15 145 23 475 -1
789 2 15 145 23 476 -1
790 2 15 144 22 476 -1
791 2 15 144 23 476 -1
792 2 15 143 22 476 -1
793 2 15 143 22 475 -1
794 2 15 142 22 474 -1
795 2 15 142 22 473 -1
796 2 15 142 21 472 -1
797 4 15 143 20 473 -1
798 2 15 144 19 473 -1
799 4 15 145 19 472 -1
800 0 16 375 199 102 801
801 1 16 376 200 102 800
802 2 16 377 200 101 -1
803 3 16 377 199 102 -1
804 4 16 377 198 103 -1
805 5 16 377 197 103 -1
806 0 16 376 198 102 810
807 6 16 375 198 101 -1
808 3 16 374 197 100 -1
809 5 16 374 198 101 -1
810 1 16 375 197 102 806
811 7 16 376 196 102 -1
812 8 16 376 195 101 -1
813 6 16 376 195 100 -1
814 9 16 375 196 100 -1
815 8 16 374 197 99 -1
816 6 16 374 198 100 -1
817 6 16 375 198 99 -1
818 6 16 376 197 98 -1
819 7 16 377 196 98 -1
820 3 16 377 196 99 -1
821 5 16 378 197 100 -1
822 7 16 379 198 100 -1
823 5 16 380 197 99 -1
824 1 16 379 196 100 -1
825 3 16 379 195 99 -1
826 4 16 380 194 100 -1
827 3 16 380 193 99 -1
828 3 16 380 193 98 -1
829 5 16 379 193 97 -1
830 6 16 378 192 97 -1
831 4 16 379 191 97 -1
832 2 16 378 190 97 -1
833 2 16 377 190 98 -1
834 2 16 376 189 98 -1
835 2 16 375 190 98 -1
836 2 16 376 190 99 -1
837 4 16 377 191 99 -1
838 2 16 376 191 98 -1
839 2 16 375 190 97 -1
840 2 16 376 191 96 -1
841 2 16 376 191 95 -1
842 2 16 375 192 96 -1
843 2 16 374 191 96 -1
844 2 16 374 192 96 -1
845 2 16 375 192 97 -1
846 2 16 374 191 97 -1
847 4 16 375 191 96 -1
848 2 16 375 190 95 -1
849 4 16 375 189 96 -1
850 0 17 442 142 477 851
851 1 17 442 143 478 850
852 2 17 441 142 478 -1
853 3 17 442 141 477 -1
854 4 17 441 141 477 -1
855 5 17 441 140 477 -1
856 0 17 442 140 476 860
857 6 17 442 139 476 -1
858 3 17 442 138 475 -1
859 5 17 442 139 474 -1
860 1 17 442 139 475 856
861 7 17 443 140 476 -1
862 8 17 443 140 477 -1
863 6 17 443 141 478 -1
864 9 17 444 141 477 -1
865 8 17 443 141 477 -1
866 6 17 444 140 478 -1
867 6 17 444 141 479 -1
868 6 17 443 141 479 -1
869 7 17 444 140 479 -1
870 3 17 443 139 478 -1
871 5 17 444 139 479 -1
872 7 17 445 138 479 -1
873 5 17 445 137 480 -1
874 1 17 445 137 481 -1
875 3 17 446 136 482 -1
876 4 17 445 136 481 -1
877 3 17 445 135 480 -1
878 3 17 445 135 481 -1
879 5 17 445 134 482 -1
880 6 17 444 134 481 -1
881 4 17 443 133 482 -1
882 2 17 444 132 481 -1
883 2 17 445 131 480 -1
884 2 17 444 132 479 -1
885 2 17 445 133 480 -1
886 2 17 446 133 480 -1
887 4 17 447 132 479 -1
888 2 17 447 133 478 -1
889 2 17 446 132 477 -1
890 2 17 447 132 476 -1
891 2 17 447 132 475 -1
892 2 17 446 133 475 -1
893 2 17 445 133 474 -1
894 2 17 444 132 473 -1
895 2 17 443 133 473 -1
896 2 17 442 133 472 -1
897 4 17 443 132 472 -1
898 2 17 443 131 473 -1
899 4 17 443 132 473 -1
900 0 18 281 430 496 901
901 1 18 280 431 495 900
902 2 18 281 431 496 -1
903 3 18 281 430 497 -1
904 4 18 281 429 497 -1
905 5 18 282 430 496 -1
906 0 18 282 431 495 910
907 6 18 283 432 496 -1
908 3 18 282 431 496 -1
909 5 18 283 431 495 -1
910 1 18 283 432 494 906
911 7 18 284 433 493 -1
912 8 18 283 434 493 -1
913 6 18 283 434 494 -1
914 9 18 284 435 493 -1
915 8 18 283 435 492 -1
916 6 18 283 435 491 -1
917 6 18 284 434 491 -1
918 6 18 283 433 490 -1
919 7 18 282 433 491 -1
920 3 18 283 432 491 -1
921 5 18 284 433 491 -1
922 7 18 285 433 491 -1
923 5 18 284 433 490 -1
924 1 18 284 434 489 -1
925 3 18 283 435 489 -1
926 4 18 283 436 490 -1
927 3 18 282 435 489 -1
928 3 18 283 434 489 -1
929 5 18 282 433 490 -1
930 6 18 281 434 489 -1
931 4 18 280 435 489 -1
932 2 18 279 434 488 -1
933 2 18 279 435 488 -1
934 2 18 280 436 488 -1
935 2 18 280 435 488 -1
936 2 18 280 434 487 -1
937 4 18 279 433 486 -1
938 2 18 278 432 486 -1
939 2 18 279 432 486 -1
940 2 18 280 432 487 -1
941 2 18 280 432 486 -1
942 2 18 281 433 486 -1
943 2 18 280 434 486 -1
944 2 18 280 435 485 -1
945 2 18 281 435 484 -1
946 2 18 280 436 484 -1
947 4 18 281 436 484 -1
948 2 18 281 437 483 -1
949 4 18 282 436 482 -1
950 0 19 333 165 260 -1
951 1 19 334 166 261 -1
952 2 19 335 167 260 -1
953 3 19 336 168 261 -1
954 4 19 335 167 261 -1
955 5 19 335 168 262 -1
956 0 19 335 169 263 -1
957 6 19 336 169 263 -1
958 3 19 335 169 262 -1
959 5 19 334 170 262 -1
960 1 19 333 169 263 -1
961 7 19 334 168 264 -1
962 8 19 335 169 265 -1
963 6 19 336 170 266 -1
964 9 19 337 171 266 -1
965 8 19 338 170 266 -1
966 6 19 339 170 266 -1
967 6 19 339 169 265 -1
968 6 19 338 169 265 -1
969 7 19 337 170 264 -1
970 3 19 336 170 264 -1
971 5 19 335 171 263 -1
972 7 19 335 171 264 -1
973 5 19 335 170 264 -1
974 1 19 335 169 264 -1
975 3 19 336 168 263 -1
976 4 19 336 169 262 -1
977 3 19 337 168 262 -1
978 3 19 338 168 263 -1
979 5 19 338 168 262 -1
980 6 19 339 167 263 -1
981 4 19 338 166 264 -1
982 2 19 338 166 265 -1
983 2 19 337 166 264 -1
984 2 19 337 165 263 -1
985 2 19 336 166 264 -1
986 2 19 337 165 265 -1
987 4 19 337 166 265 -1
988 2 19 336 165 266 -1
989 2 19 335 164 267 -1
990 2 19 335 163 268 -1
991 2 19 334 162 268 -1
992 2 19 335 161 267 -1
993 2 19 334 160 267 -1
994 2 19 334 161 267 -1
995 2 19 335 162 268 -1
996 2 19 335 161 269 -1
997 4 19 334 162 269 -1
998 2 19 335 163 270 -1
999 4 19 336 162 271 -1
1000 0 20 362 431 335 1001
1001 1 20 362 432 334 1000
1002 2 20 362 432 333 -1
1003 3 20 363 433 333 -1
1004 4 20 362 434 333 -1
1005 5 20 362 435 334 -1
1006 0 20 361 436 333 1010
1007 6 20 360 437 332 -1
1008 3 20 360 436 332 -1
1009 5 20 360 436 331 -1
1010 1 20 360 435 332 1006
1011 7 20 361 436 331 -1
1012 8 20 360 435 331 -1
1013 6 20 360 434 332 -1
1014 9 20 361 435 333 -1
1015 8 20 361 435 334 -1
1016 6 20 361 436 335 -1
1017 6 20 360 437 335 -1
1018 6 20 361 438 335 -1
1019 7 20 360 437 336 -1
1020 3 20 361 436 336 -1
1021 5 20 361 436 337 -1
1022 7 20 362 435 336 -1
1023 5 20 362 436 336 -1
1024 1 20 363 436 336 -1
1025 3 20 364 437 336 -1
1026 4 20 365 438 336 -1
1027 3 20 366 439 336 -1
1028 3 20 366 439 335 -1
1029 5 20 367 439 335 -1
1030 6 20 367 439 334 -1
1031 4 20 367 440 335 -1
1032 2 20 367 440 334 -1
1033 2 20 367 439 333 -1
1034 2 20 366 438 332 -1
1035 2 20 366 439 332 -1
1036 2 20 366 438 333 -1
1037 4 20 365 438 334 -1
1038 2 20 364 437 334 -1
1039 2 20 364 437 333 -1
1040 2 20 363 438 332 -1
1041 2 20 364 437 332 -1
1042 2 20 364 437 331 -1
1043 2 20 365 438 331 -1
1044 2 20 365 437 331 -1
1045 2 20 365 436 330 -1
1046 2 20 364 437 330 -1
1047 4 20 363 438 330 -1
1048 2 20 363 439 331 -1
1049 4 20 362 440 330 -1
1050 0 21 267 490 385 1051
1051 1 21 268 491 384 1050
1052 2 21 267 492 383 -1
1053 3 21 268 493 383 -1
1054 4 21 268 494 382 -1
1055 5 21 269 495 383 -1
1056 0 21 270 496 383 1060
1057 6 21 271 496 382 -1
1058 3 21 270 497 381 -1
1059 5 21 270 497 382 -1
1060 1 21 269 497 383 1056
1061 7 21 270 497 383 -1
1062 8 21 271 498 382 -1
1063 6 21 270 498 381 -1
1064 9 21 269 499 380 -1
1065 8 21 268 0 379 -1
1066 6 21 267 499 378 -1
1067 6 21 268 499 377 -1
1068 6 21 269 498 377 -1
1069 7 21 268 498 376 -1
1070 3 21 269 499 375 -1
1071 5 21 268 0 376 -1
1072 7 21 267 0 377 -1
1073 5 21 268 1 378 -1
1074 1 21 267 0 378 -1
1075 3 21 268 1 377 -1
1076 4 21 267 1 378 -1
1077 3 21 268 2 378 -1
1078 3 21 267 1 379 -1
1079 5 21 268 1 380 -1
1080 6 21 269 1 379 -1
1081 4 21 269 1 380 -1
1082 2 21 269 2 381 -1
1083 2 21 269 2 380 -1
1084 2 21 268 3 379 -1
1085 2 21 267 4 378 -1
1086 2 21 266 4 377 -1
1087 4 21 266 5 377 -1
1088 2 21 265 4 377 -1
1089 2 21 264 3 377 -1
1090 2 21 263 3 377 -1
1091 2 21 263 4 377 -1
1092 2 21 264 5 377 -1
1093 2 21 265 6 376 -1
1094 2 21 264 7 375 -1
1095 2 21 264 8 376 -1
1096 2 21 264 8 377 -1
1097 4 21 263 9 378 -1
1098 2 21 264 9 379 -1
1099 4 21 263 10 378 -1
1100 0 22 235 4 107 1101
1101 1 22 234 3 107 1100
1102 2 22 233 3 107 -1
1103 3 22 234 3 108 -1
1104 4 22 233 2 107 -1
1105 5 22 232 3 108 -1
1106 0 22 233 3 109 1110
1107 6 22 233 2 110 -1
1108 3 22 233 3 111 -1
1109 5 22 234 3 111 -1
1110 1 22 233 3 110 1106
1111 7 22 232 4 109 -1
1112 8 22 231 4 110 -1
1113 6 22 232 5 109 -1
1114 9 22 233 6 110 -1
1115 8 22 234 7 111 -1
1116 6 22 234 6 110 -1
1117 6 22 234 6 109 -1
1118 6 22 233 5 110 -1
1119 7 22 233 5 111 -1
1120 3 22 233 5 112 -1
1121 5 22 234 5 113 -1
1122 7 22 235 5 113 -1
1123 5 22 236 4 112 -1
1124 1 22 237 3 111 -1
1125 3 22 238 4 111 -1
1126 4 22 239 4 110 -1
1127 3 22 239 4 109 -1
1128 3 22 240 4 109 -1
1129 5 22 240 5 108 -1
1130 6 22 239 5 109 -1
1131 4 22 239 5 110 -1
1132 2 22 240 6 110 -1
1133 2 22 241 7 110 -1
1134 2 22 240 6 109 -1
1135 2 22 241 5 109 -1
1136 2 22 242 5 109 -1
1137 4 22 243 6 108 -1
1138 2 22 244 7 109 -1
1139 2 22 245 6 110 -1
1140 2 22 244 7 111 -1
1141 2 22 244 6 110 -1
1142 2 22 244 6 109 -1
1143 2 22 245 7 108 -1
1144 2 22 246 6 108 -1
1145 2 22 246 5 107 -1
1146 2 22 247 4 108 -1
1147 4 22 246 4 109 -1
1148 2 22 247 4 109 -1
1149 4 22 247 3 109 -1
1150 0 23 86 237 320 1151
1151 1 23 85 237 319 1150
1152 2 23 85 238 320 -1
1153 3 23 85 239 320 -1
1154 4 23 86 239 320 -1
1155 5 23 87 238 319 -1
1156 0 23 88 238 318 1160
1157 6 23 89 237 317 -1
1158 3 23 90 237 318 -1
1159 5 23 90 238 319 -1
1160 1 23 89 238 319 1156
1161 7 23 90 238 320 -1
1162 8 23 91 238 319 -1
1163 6 23 92 239 319 -1
1164 9 23 92 240 320 -1
1165 8 23 91 239 320 -1
1166 6 23 92 240 321 -1
1167 6 23 91 240 322 -1
1168 6 23 91 239 321 -1
1169 7 23 90 239 322 -1
1170 3 23 91 239 322 -1
1171 5 23 92 239 322 -1
1172 7 23 93 238 322 -1
1173 5 23 93 239 322 -1
1174 1 23 94 239 322 -1
1175 3 23 93 240 321 -1
1176 4 23 94 239 320 -1
1177 3 23 94 240 319 -1
1178 3 23 95 239 320 -1
1179 5 23 94 240 321 -1
1180 6 23 93 241 321 -1
1181 4 23 94 241 321 -1
1182 2 23 94 242 320 -1
1183 2 23 93 243 321 -1
1184 2 23 94 244 321 -1
1185 2 23 95 244 322 -1
1186 2 23 96 244 323 -1
1187 4 23 97 245 324 -1
1188 2 23 97 246 323 -1
1189 2 23 98 245 323 -1
1190 2 23 97 246 322 -1
1191 2 23 98 247 323 -1
1192 2 23 99 248 324 -1
1193 2 23 99 247 325 -1
1194 2 23 99 248 326 -1
1195 2 23 98 249 327 -1
1196 2 23 98 249 326 -1
1197 4 23 99 250 325 -1
1198 2 23 100 250 325 -1
1199 4 23 99 249 326 -1
1200 0 24 253 303 211 1201
1201 1 24 254 303 211 1200
1202 2 24 255 302 211 -1
1203 3 24 256 303 212 -1
1204 4 24 256 304 211 -1
1205 5 24 257 305 212 -1
1206 0 24 257 304 211 1210
1207 6 24 258 305 211 -1
1208 3 24 258 304 210 -1
1209 5 24 259 304 211 -1
1210 1 24 258 303 212 1206
1211 7 24 257 303 212 -1
1212 8 24 257 302 211 -1
1213 6 24 256 302 211 -1
1214 9 24 256 301 211 -1
1215 8 24 255 301 211 -1
1216 6 24 256 300 210 -1
1217 6 24 257 299 211 -1
1218 6 24 257 298 210 -1
1219 7 24 256 298 211 -1
1220 3 24 256 299 210 -1
1221 5 24 257 300 209 -1
1222 7 24 257 301 208 -1
1223 5 24 257 301 207 -1
1224 1 24 258 302 208 -1
1225 3 24 259 302 207 -1
1226 4 24 258 303 207 -1
1227 3 24 259 304 207 -1
1228 3 24 259 303 207 -1
1229 5 24 258 304 208 -1
1230 6 24 259 304 209 -1
1231 4 24 260 305 210 -1
1232 2 24 261 305 210 -1
1233 2 24 261 306 210 -1
1234 2 24 261 307 210 -1
1235 2 24 262 307 209 -1
1236 2 24 262 306 209 -1
1237 4 24 261 306 209 -1
1238 2 24 262 305 209 -1
1239 2 24 262 304 210 -1
1240 2 24 263 304 209 -1
1241 2 24 264 304 209 -1
1242 2 24 265 305 208 -1
1243 2 24 264 306 207 -1
1244 2 24 265 307 206 -1
1245 2 24 265 308 207 -1
1246 2 24 265 308 206 -1
1247 4 24 264 307 206 -1
1248 2 24 264 306 205 -1
1249 4 24 265 305 204 -1
1250 0 25 198 400 420 1251
1251 1 25 198 400 421 1250
1252 2 25 197 400 420 -1
1253 3 25 196 401 421 -1
1254 4 25 197 401 422 -1
1255 5 25 196 400 423 -1
1256 0 25 196 400 424 1260
1257 6 25 195 401 425 -1
1258 3 25 194 401 425 -1
1259 5 25 194 400 424 -1
1260 1 25 195 399 424 1256
1261 7 25 196 398 423 -1
1262 8 25 197 397 423 -1
1263 6 25 198 397 423 -1
1264 9 25 197 396 422 -1
1265 8 25 197 396 423 -1
1266 6 25 198 396 423 -1
1267 6 25 198 395 422 -1
1268 6 25 197 394 423 -1
1269 7 25 198 393 424 -1
1270 3 25 199 392 423 -1
1271 5 25 199 391 424 -1
1272 7 25 198 390 424 -1
1273 5 25 198 390 423 -1
1274 1 25 198 389 423 -1
1275 3 25 198 388 424 -1
1276 4 25 199 387 423 -1
1277 3 25 200 388 422 -1
1278 3 25 201 389 422 -1
1279 5 25 202 390 422 -1
1280 6 25 201 391 423 -1
1281 4 25 202 392 423 -1
1282 2 25 203 391 422 -1
1283 2 25 203 391 421 -1