LAMMPS Description

10000	atoms
19600	bonds
0	angles
0	dihedrals
0	impropers

6	atom types
1	bond types
0	angle types

0 500 xlo xhi
0 500 ylo yhi
0 500 zlo zhi

Masses

1	1.0
2	1.0
3	1.0
4	1.0
5	1.0
6	1.0

Atoms

0 0 0 0.0 248 422 180
1 0 1 0.0 247 421 179
2 0 2 0.0 248 421 180
3 0 3 0.0 248 421 179
4 0 4 0.0 247 422 180
5 0 5 0.0 246 422 180
6 0 0 0.0 245 422 180
7 0 6 0.0 244 421 179
8 0 3 0.0 243 421 179
9 0 5 0.0 242 421 178
10 0 1 0.0 243 422 178
11 0 7 0.0 242 421 177
12 0 8 0.0 241 422 176
13 0 6 0.0 241 422 177
14 0 9 0.0 240 422 177
15 0 8 0.0 241 423 176
16 0 6 0.0 242 424 176
17 0 6 0.0 242 424 177
18 0 6 0.0 241 425 177
19 0 7 0.0 242 426 176
20 0 3 0.0 241 427 175
21 0 5 0.0 242 426 174
22 0 7 0.0 242 426 173
23 0 5 0.0 243 427 174
24 0 1 0.0 243 426 173
25 0 3 0.0 242 427 172
26 0 4 0.0 241 428 171
27 0 3 0.0 241 428 172
28 0 3 0.0 240 428 173
29 0 5 0.0 239 429 174
30 0 6 0.0 238 430 173
31 0 4 0.0 239 431 172
32 0 2 0.0 239 430 171
33 0 2 0.0 239 429 170
34 0 2 0.0 239 428 171
35 0 2 0.0 238 429 171
36 0 2 0.0 237 428 170
37 0 4 0.0 236 428 169
38 0 2 0.0 237 429 168
39 0 2 0.0 236 429 167
40 0 2 0.0 236 430 168
41 0 2 0.0 236 429 168
42 0 2 0.0 237 430 168
43 0 2 0.0 238 429 167
44 0 2 0.0 238 428 167
45 0 2 0.0 239 427 166
46 0 2 0.0 239 427 165
47 0 4 0.0 239 426 165
48 0 2 0.0 238 425 164
49 0 4 0.0 238 425 165
50 1 0 0.0 6 318 382
51 1 1 0.0 6 318 383
52 1 2 0.0 5 317 383
53 1 3 0.0 6 317 382
54 1 4 0.0 5 316 381
55 1 5 0.0 6 315 381
56 1 0 0.0 7 316 381
57 1 6 0.0 8 316 382
58 1 3 0.0 7 317 381
59 1 5 0.0 8 317 380
60 1 1 0.0 7 317 379
61 1 7 0.0 6 317 379
62 1 8 0.0 5 318 379
63 1 6 0.0 5 318 378
64 1 9 0.0 5 319 379
65 1 8 0.0 6 319 380
66 1 6 0.0 7 319 380
67 1 6 0.0 8 319 379
68 1 6 0.0 8 320 380
69 1 7 0.0 9 319 380
70 1 3 0.0 10 318 379
71 1 5 0.0 9 317 378
72 1 7 0.0 10 317 378
73 1 5 0.0 10 316 377
74 1 1 0.0 9 315 376
75 1 3 0.0 8 314 377
76 1 4 0.0 9 315 377
77 1 3 0.0 9 316 376
78 1 3 0.0 9 315 375
79 1 5 0.0 10 314 374
80 1 6 0.0 10 313 374
81 1 4 0.0 10 313 373
82 1 2 0.0 9 314 373
83 1 2 0.0 8 314 373
84 1 2 0.0 8 313 374
85 1 2 0.0 9 312 373
86 1 2 0.0 8 313 372
87 1 4 0.0 9 313 373
88 1 2 0.0 10 314 373
89 1 2 0.0 11 314 374
90 1 2 0.0 11 313 374
91 1 2 0.0 12 313 373
92 1 2 0.0 12 312 373
93 1 2 0.0 13 311 374
94 1 2 0.0 13 310 373
95 1 2 0.0 13 309 373
96 1 2 0.0 12 308 372
97 1 4 0.0 11 309 373
98 1 2 0.0 10 308 372
99 1 4 0.0 10 309 373
100 2 0 0.0 53 206 50
101 2 1 0.0 52 207 49
102 2 2 0.0 51 207 48
103 2 3 0.0 52 208 47
104 2 4 0.0 53 207 47
105 2 5 0.0 54 207 47
106 2 0 0.0 53 206 47
107 2 6 0.0 54 206 47
108 2 3 0.0 55 207 48
109 2 5 0.0 55 206 49
110 2 1 0.0 54 205 50
111 2 7 0.0 55 204 51
112 2 8 0.0 56 204 52
113 2 6 0.0 55 204 52
114 2 9 0.0 54 204 52
115 2 8 0.0 55 203 51
116 2 6 0.0 56 203 50
117 2 6 0.0 56 203 51
118 2 6 0.0 57 204 50
119 2 7 0.0 57 203 50
120 2 3 0.0 57 204 51
121 2 5 0.0 58 205 51
122 2 7 0.0 58 206 50
123 2 5 0.0 57 205 50
124 2 1 0.0 58 204 51
125 2 3 0.0 59 204 52
126 2 4 0.0 58 204 52
127 2 3 0.0 58 203 51
128 2 3 0.0 58 204 50
129 2 5 0.0 57 203 49
130 2 6 0.0 56 202 48
131 2 4 0.0 56 203 47
132 2 2 0.0 57 204 47
133 2 2 0.0 56 204 47
134 2 2 0.0 57 205 46
135 2 2 0.0 57 206 46
136 2 2 0.0 57 207 47
137 2 4 0.0 58 206 48
138 2 2 0.0 57 205 49
139 2 2 0.0 58 204 49
140 2 2 0.0 59 203 48
141 2 2 0.0 58 203 47
142 2 2 0.0 59 204 48
143 2 2 0.0 58 203 48
144 2 2 0.0 58 202 47
145 2 2 0.0 58 201 46
146 2 2 0.0 59 200 47
147 2 4 0.0 59 201 46
148 2 2 0.0 60 202 46
149 2 4 0.0 60 203 45
150 3 0 0.0 328 278 52
151 3 1 0.0 329 278 53
152 3 2 0.0 329 279 52
153 3 3 0.0 328 279 52
154 3 4 0.0 327 280 53
155 3 5 0.0 326 279 54
156 3 0 0.0 327 278 55
157 3 6 0.0 326 279 56
158 3 3 0.0 327 279 55
159 3 5 0.0 326 278 56
160 3 1 0.0 325 279 56
161 3 7 0.0 324 280 57
162 3 8 0.0 325 281 57
163 3 6 0.0 326 281 56
164 3 9 0.0 326 280 56
165 3 8 0.0 326 280 55
166 3 6 0.0 326 279 55
167 3 6 0.0 325 279 54
168 3 6 0.0 326 278 55
169 3 7 0.0 325 278 56
170 3 3 0.0 324 278 56
171 3 5 0.0 323 277 55
172 3 7 0.0 323 278 56
173 3 5 0.0 324 277 55
174 3 1 0.0 323 278 54
175 3 3 0.0 324 278 54
176 3 4 0.0 323 278 53
177 3 3 0.0 323 279 54
178 3 3 0.0 322 279 53
179 3 5 0.0 323 279 53
180 3 6 0.0 322 280 52
181 3 4 0.0 323 280 53
182 3 2 0.0 324 281 54
183 3 2 0.0 323 281 53
184 3 2 0.0 324 281 52
185 3 2 0.0 324 280 51
186 3 2 0.0 325 281 51
187 3 4 0.0 325 280 52
188 3 2 0.0 324 279 51
189 3 2 0.0 324 279 50
190 3 2 0.0 323 278 50
191 3 2 0.0 322 277 51
192 3 2 0.0 323 277 51
193 3 2 0.0 322 276 52
194 3 2 0.0 322 276 53
195 3 2 0.0 323 275 54
196 3 2 0.0 323 274 53
197 3 4 0.0 324 273 52
198 3 2 0.0 324 272 52
199 3 4 0.0 325 273 53
200 4 0 0.0 315 255 481
201 4 1 0.0 315 254 481
202 4 2 0.0 314 253 480
203 4 3 0.0 315 252 480
204 4 4 0.0 315 252 479
205 4 5 0.0 315 253 479
206 4 0 0.0 316 252 480
207 4 6 0.0 317 253 481
208 4 3 0.0 317 253 480
209 4 5 0.0 317 252 479
210 4 1 0.0 318 252 479
211 4 7 0.0 318 251 479
212 4 8 0.0 318 252 478
213 4 6 0.0 317 252 478
214 4 9 0.0 317 251 477
215 4 8 0.0 316 252 477
216 4 6 0.0 317 252 477
217 4 6 0.0 318 252 476
218 4 6 0.0 319 251 476
219 4 7 0.0 320 252 477
220 4 3 0.0 319 253 478
221 4 5 0.0 320 252 479
222 4 7 0.0 320 253 478
223 4 5 0.0 319 253 477
224 4 1 0.0 318 253 476
225 4 3 0.0 319 253 476
226 4 4 0.0 319 252 476
227 4 3 0.0 320 252 476
228 4 3 0.0 320 251 475
229 4 5 0.0 321 251 476
230 4 6 0.0 321 250 475
231 4 4 0.0 322 249 476
232 4 2 0.0 321 249 475
233 4 2 0.0 321 248 476
234 4 2 0.0 322 247 475
235 4 2 0.0 323 247 476
236 4 2 0.0 322 246 475
237 4 4 0.0 323 247 474
238 4 2 0.0 322 246 473
239 4 2 0.0 321 245 474
240 4 2 0.0 320 244 473
241 4 2 0.0 319 245 472
242 4 2 0.0 318 246 472
243 4 2 0.0 318 246 471
244 4 2 0.0 318 247 470
245 4 2 0.0 318 246 469
246 4 2 0.0 318 245 470
247 4 4 0.0 319 245 471
248 4 2 0.0 319 246 472
249 4 4 0.0 318 247 471
250 5 0 0.0 290 135 177
251 5 1 0.0 289 134 178
252 5 2 0.0 289 134 177
253 5 3 0.0 289 133 177
254 5 4 0.0 289 133 178
255 5 5 0.0 290 134 177
256 5 0 0.0 291 133 178
257 5 6 0.0 290 133 178
258 5 3 0.0 290 132 178
259 5 5 0.0 291 131 178
260 5 1 0.0 291 132 178
261 5 7 0.0 292 132 179
262 5 8 0.0 292 133 179
263 5 6 0.0 291 134 178
264 5 9 0.0 291 135 177
265 5 8 0.0 291 135 176
266 5 6 0.0 290 136 177
267 5 6 0.0 289 137 177
268 5 6 0.0 288 137 176
269 5 7 0.0 288 138 177
270 5 3 0.0 287 138 177
271 5 5 0.0 287 139 176
272 5 7 0.0 286 138 177
273 5 5 0.0 286 139 177
274 5 1 0.0 287 139 177
275 5 3 0.0 287 138 178
276 5 4 0.0 288 138 179
277 5 3 0.0 288 139 179
278 5 3 0.0 289 139 178
279 5 5 0.0 289 140 177
280 5 6 0.0 288 141 177
281 5 4 0.0 288 142 178
282 5 2 0.0 288 143 179
283 5 2 0.0 289 143 179
284 5 2 0.0 289 142 179
285 5 2 0.0 289 142 178
286 5 2 0.0 289 143 178
287 5 4 0.0 289 143 177
288 5 2 0.0 290 142 177
289 5 2 0.0 289 141 177
290 5 2 0.0 290 140 176
291 5 2 0.0 291 139 177
292 5 2 0.0 292 138 177
293 5 2 0.0 292 137 177
294 5 2 0.0 292 138 178
295 5 2 0.0 293 138 177
296 5 2 0.0 293 137 177
297 5 4 0.0 294 136 177
298 5 2 0.0 294 137 177
299 5 4 0.0 295 137 177
300 6 0 0.0 175 441 179
301 6 1 0.0 174 441 180
302 6 2 0.0 174 442 181
303 6 3 0.0 173 441 180
304 6 4 0.0 173 442 179
305 6 5 0.0 173 442 178
306 6 0 0.0 173 441 178
307 6 6 0.0 172 440 178
308 6 3 0.0 171 441 177
309 6 5 0.0 172 441 176
310 6 1 0.0 173 441 176
311 6 7 0.0 173 440 176
312 6 8 0.0 173 439 175
313 6 6 0.0 174 440 176
314 6 9 0.0 175 439 177
315 6 8 0.0 174 440 178
316 6 6 0.0 174 439 177
317 6 6 0.0 175 438 178
318 6 6 0.0 174 437 177
319 6 7 0.0 173 438 178
320 6 3 0.0 172 438 177
321 6 5 0.0 172 437 176
322 6 7 0.0 173 438 175
323 6 5 0.0 174 437 175
324 6 1 0.0 175 436 175
325 6 3 0.0 176 435 175
326 6 4 0.0 175 435 175
327 6 3 0.0 174 434 175
328 6 3 0.0 173 434 176
329 6 5 0.0 172 435 177
330 6 6 0.0 171 434 177
331 6 4 0.0 170 435 178
332 6 2 0.0 170 436 179
333 6 2 0.0 170 436 180
334 6 2 0.0 169 436 180
335 6 2 0.0 169 435 181
336 6 2 0.0 168 434 180
337 6 4 0.0 169 434 180
338 6 2 0.0 169 434 181
339 6 2 0.0 169 433 181
340 6 2 0.0 169 433 182
341 6 2 0.0 168 434 183
342 6 2 0.0 167 433 183
343 6 2 0.0 168 432 182
344 6 2 0.0 167 431 182
345 6 2 0.0 168 430 182
346 6 2 0.0 168 430 181
347 6 4 0.0 168 429 182
348 6 2 0.0 169 430 183
349 6 4 0.0 169 429 182
350 7 0 0.0 127 268 255
351 7 1 0.0 126 267 255
352 7 2 0.0 125 266 254
353 7 3 0.0 125 267 253
354 7 4 0.0 125 266 253
355 7 5 0.0 124 267 254
356 7 0 0.0 123 266 253
357 7 6 0.0 123 266 254
358 7 3 0.0 122 266 254
359 7 5 0.0 123 266 255
360 7 1 0.0 122 265 256
361 7 7 0.0 123 265 257
362 7 8 0.0 122 266 256
363 7 6 0.0 122 265 255
364 7 9 0.0 122 264 255
365 7 8 0.0 122 263 255
366 7 6 0.0 121 262 256
367 7 6 0.0 122 262 256
368 7 6 0.0 122 261 255
369 7 7 0.0 121 260 256
370 7 3 0.0 122 260 257
371 7 5 0.0 123 260 257
372 7 7 0.0 124 261 256
373 7 5 0.0 125 261 257
374 7 1 0.0 125 260 258
375 7 3 0.0 124 260 257
376 7 4 0.0 124 259 257
377 7 3 0.0 123 258 256
378 7 3 0.0 124 259 255
379 7 5 0.0 123 260 256
380 7 6 0.0 124 261 257
381 7 4 0.0 123 261 258
382 7 2 0.0 122 261 257
383 7 2 0.0 122 261 256
384 7 2 0.0 123 261 255
385 7 2 0.0 123 260 254
386 7 2 0.0 123 261 254
387 7 4 0.0 122 260 253
388 7 2 0.0 122 260 254
389 7 2 0.0 123 260 253
390 7 2 0.0 124 261 253
391 7 2 0.0 125 261 252
392 7 2 0.0 126 261 251
393 7 2 0.0 125 260 252
394 7 2 0.0 125 261 253
395 7 2 0.0 125 260 254
396 7 2 0.0 124 260 253
397 7 4 0.0 124 260 252
398 7 2 0.0 125 260 253
399 7 4 0.0 126 260 254
400 8 0 0.0 304 393 98
401 8 1 0.0 303 393 97
402 8 2 0.0 303 394 97
403 8 3 0.0 302 394 96
404 8 4 0.0 302 395 96
405 8 5 0.0 301 394 95
406 8 0 0.0 300 393 94
407 8 6 0.0 299 394 94
408 8 3 0.0 298 393 95
409 8 5 0.0 297 392 96
410 8 1 0.0 296 392 96
411 8 7 0.0 296 392 97
412 8 8 0.0 297 393 98
413 8 6 0.0 297 393 97
414 8 9 0.0 298 392 96
415 8 8 0.0 298 391 96
416 8 6 0.0 299 392 96
417 8 6 0.0 300 393 96
418 8 6 0.0 299 393 97
419 8 7 0.0 299 393 96
420 8 3 0.0 298 393 96
421 8 5 0.0 299 393 95
422 8 7 0.0 300 392 94
423 8 5 0.0 301 393 95
424 8 1 0.0 301 393 96
425 8 3 0.0 301 392 97
426 8 4 0.0 300 393 98
427 8 3 0.0 301 394 99
428 8 3 0.0 300 395 98
429 8 5 0.0 299 394 99
430 8 6 0.0 298 393 99
431 8 4 0.0 297 392 99
432 8 2 0.0 296 392 98
433 8 2 0.0 297 392 97
434 8 2 0.0 298 393 97
435 8 2 0.0 299 394 96
436 8 2 0.0 300 394 96
437 8 4 0.0 300 393 97
438 8 2 0.0 300 394 97
439 8 2 0.0 299 393 98
440 8 2 0.0 299 392 98
441 8 2 0.0 300 391 97
442 8 2 0.0 301 391 98
443 8 2 0.0 302 391 98
444 8 2 0.0 302 392 99
445 8 2 0.0 302 391 100
446 8 2 0.0 302 391 99
447 8 4 0.0 301 392 98
448 8 2 0.0 301 393 99
449 8 4 0.0 301 394 98
450 9 0 0.0 446 60 229
451 9 1 0.0 447 61 230
452 9 2 0.0 446 61 231
453 9 3 0.0 445 60 230
454 9 4 0.0 445 60 231
455 9 5 0.0 444 61 230
456 9 0 0.0 443 60 230
457 9 6 0.0 444 61 229
458 9 3 0.0 445 62 229
459 9 5 0.0 444 62 229
460 9 1 0.0 443 63 228
461 9 7 0.0 442 64 227
462 9 8 0.0 441 63 226
463 9 6 0.0 442 63 225
464 9 9 0.0 441 63 224
465 9 8 0.0 440 64 224
466 9 6 0.0 441 64 224
467 9 6 0.0 441 63 223
468 9 6 0.0 440 63 224
469 9 7 0.0 441 63 225
470 9 3 0.0 440 64 226
471 9 5 0.0 439 65 227
472 9 7 0.0 438 65 227
473 9 5 0.0 438 66 226
474 9 1 0.0 438 65 225
475 9 3 0.0 438 64 226
476 9 4 0.0 439 64 226
477 9 3 0.0 439 63 227
478 9 3 0.0 438 64 227
479 9 5 0.0 437 64 228
480 9 6 0.0 436 64 228
481 9 4 0.0 435 65 227
482 9 2 0.0 434 64 227
483 9 2 0.0 433 65 227
484 9 2 0.0 432 66 226
485 9 2 0.0 432 66 227
486 9 2 0.0 433 67 227
487 9 4 0.0 433 66 227
488 9 2 0.0 432 65 228
489 9 2 0.0 433 65 229
490 9 2 0.0 433 65 230
491 9 2 0.0 434 66 230
492 9 2 0.0 435 67 230
493 9 2 0.0 434 68 231
494 9 2 0.0 433 68 232
495 9 2 0.0 433 67 231
496 9 2 0.0 434 67 231
497 9 4 0.0 433 67 230
498 9 2 0.0 433 66 231
499 9 4 0.0 434 66 231
500 10 0 0.0 191 73 99
501 10 1 0.0 190 74 99
502 10 2 0.0 191 75 98
503 10 3 0.0 192 74 99
504 10 4 0.0 192 74 98
505 10 5 0.0 192 73 97
506 10 0 0.0 192 74 97
507 10 6 0.0 191 74 97
508 10 3 0.0 190 74 96
509 10 5 0.0 190 74 97
510 10 1 0.0 191 73 96
511 10 7 0.0 191 72 97
512 10 8 0.0 191 71 98
513 10 6 0.0 190 72 99
514 10 9 0.0 190 72 100
515 10 8 0.0 191 72 100
516 10 6 0.0 191 71 101
517 10 6 0.0 192 71 101
518 10 6 0.0 192 71 102
519 10 7 0.0 192 70 103
520 10 3 0.0 193 71 102
521 10 5 0.0 193 71 101
522 10 7 0.0 193 72 101
523 10 5 0.0 194 73 101
524 10 1 0.0 193 73 101
525 10 3 0.0 192 72 102
526 10 4 0.0 193 73 102
527 10 3 0.0 194 72 103
528 10 3 0.0 194 73 102
529 10 5 0.0 195 73 103
530 10 6 0.0 196 72 102
531 10 4 0.0 196 73 103
532 10 2 0.0 196 73 104
533 10 2 0.0 195 72 105
534 10 2 0.0 195 72 104
535 10 2 0.0 194 71 104
536 10 2 0.0 193 72 103
537 10 4 0.0 192 73 103
538 10 2 0.0 191 74 102
539 10 2 0.0 190 75 102
540 10 2 0.0 190 75 101
541 10 2 0.0 190 76 102
542 10 2 0.0 191 77 103
543 10 2 0.0 192 78 102
544 10 2 0.0 192 79 101
545 10 2 0.0 191 78 100
546 10 2 0.0 190 78 99
547 10 4 0.0 191 79 99
548 10 2 0.0 192 79 99
549 10 4 0.0 193 78 100
550 11 0 0.0 194 336 40
551 11 1 0.0 195 336 39
552 11 2 0.0 196 337 39
553 11 3 0.0 197 337 40
554 11 4 0.0 196 336 40
555 11 5 0.0 196 336 41
556 11 0 0.0 197 337 41
557 11 6 0.0 198 338 42
558 11 3 0.0 198 339 41
559 11 5 0.0 198 340 41
560 11 1 0.0 197 341 40
561 11 7 0.0 197 342 41
562 11 8 0.0 196 343 41
563 11 6 0.0 197 344 41
564 11 9 0.0 197 343 41
565 11 8 0.0 197 343 40
566 11 6 0.0 196 342 40
567 11 6 0.0 195 342 40
568 11 6 0.0 196 343 40
569 11 7 0.0 195 343 40
570 11 3 0.0 196 344 39
571 11 5 0.0 196 345 40
572 11 7 0.0 197 344 39
573 11 5 0.0 198 345 40
574 11 1 0.0 199 345 39
575 11 3 0.0 200 346 38
576 11 4 0.0 199 346 37
577 11 3 0.0 199 347 37
578 11 3 0.0 200 348 36
579 11 5 0.0 201 348 37
580 11 6 0.0 202 348 36
581 11 4 0.0 203 347 37
582 11 2 0.0 204 346 37
583 11 2 0.0 204 345 36
584 11 2 0.0 203 345 36
585 11 2 0.0 202 345 35
586 11 2 0.0 201 346 35
587 11 4 0.0 202 346 35
588 11 2 0.0 201 346 34
589 11 2 0.0 200 347 34
590 11 2 0.0 200 347 35
591 11 2 0.0 200 348 34
592 11 2 0.0 201 348 35
593 11 2 0.0 200 347 36
594 11 2 0.0 200 346 37
595 11 2 0.0 201 345 36
596 11 2 0.0 200 344 36
597 11 4 0.0 201 344 37
598 11 2 0.0 200 344 38
599 11 4 0.0 199 343 38
600 12 0 0.0 201 124 453
601 12 1 0.0 200 125 453
602 12 2 0.0 200 124 454
603 12 3 0.0 200 124 453
604 12 4 0.0 199 123 453
605 12 5 0.0 198 124 452
606 12 0 0.0 197 125 452
607 12 6 0.0 198 126 451
608 12 3 0.0 199 125 451
609 12 5 0.0 200 124 451
610 12 1 0.0 200 124 450
611 12 7 0.0 199 123 449
612 12 8 0.0 198 124 449
613 12 6 0.0 198 125 448
614 12 9 0.0 199 124 449
615 12 8 0.0 199 125 450
616 12 6 0.0 198 125 451
617 12 6 0.0 198 126 452
618 12 6 0.0 199 126 453
619 12 7 0.0 198 127 453
620 12 3 0.0 197 127 454
621 12 5 0.0 196 126 454
622 12 7 0.0 197 126 453
623 12 5 0.0 198 126 454
624 12 1 0.0 198 127 454
625 12 3 0.0 198 126 453
626 12 4 0.0 197 125 454
627 12 3 0.0 197 125 453
628 12 3 0.0 198 125 453
629 12 5 0.0 198 125 452
630 12 6 0.0 199 125 453
631 12 4 0.0 200 125 454
632 12 2 0.0 201 125 454
633 12 2 0.0 201 125 455
634 12 2 0.0 202 124 454
635 12 2 0.0 201 124 455
636 12 2 0.0 200 124 455
637 12 4 0.0 200 123 456
638 12 2 0.0 201 124 456
639 12 2 0.0 201 123 456
640 12 2 0.0 201 122 455
641 12 2 0.0 201 121 454
642 12 2 0.0 202 122 454
643 12 2 0.0 203 122 455
644 12 2 0.0 202 123 455
645 12 2 0.0 203 124 454
646 12 2 0.0 202 124 453
647 12 4 0.0 203 124 452
648 12 2 0.0 204 123 452
649 12 4 0.0 203 123 453
650 13 0 0.0 424 36 403
651 13 1 0.0 425 36 404
652 13 2 0.0 424 36 404
653 13 3 0.0 425 35 403
654 13 4 0.0 426 34 404
655 13 5 0.0 426 35 403
656 13 0 0.0 427 34 404
657 13 6 0.0 428 33 403
658 13 3 0.0 428 33 404
659 13 5 0.0 427 34 405
660 13 1 0.0 427 35 404
661 13 7 0.0 428 36 405
662 13 8 0.0 427 36 404
663 13 6 0.0 426 37 404
664 13 9 0.0 427 38 405
665 13 8 0.0 428 39 404
666 13 6 0.0 427 38 404
667 13 6 0.0 428 38 403
668 13 6 0.0 429 37 402
669 13 7 0.0 428 37 401
670 13 3 0.0 427 36 401
671 13 5 0.0 428 35 401
672 13 7 0.0 427 35 400
673 13 5 0.0 426 35 399
674 13 1 0.0 426 35 398
675 13 3 0.0 425 34 397
676 13 4 0.0 426 35 396
677 13 3 0.0 425 36 395
678 13 3 0.0 425 35 396
679 13 5 0.0 426 34 395
680 13 6 0.0 426 33 395
681 13 4 0.0 425 32 396
682 13 2 0.0 424 33 395
683 13 2 0.0 424 32 395
684 13 2 0.0 424 33 394
685 13 2 0.0 425 33 393
686 13 2 0.0 425 34 392
687 13 4 0.0 425 34 391
688 13 2 0.0 426 34 391
689 13 2 0.0 427 33 392
690 13 2 0.0 427 33 391
691 13 2 0.0 427 32 391
692 13 2 0.0 428 31 391
693 13 2 0.0 427 31 392
694 13 2 0.0 427 30 392
695 13 2 0.0 428 29 392
696 13 2 0.0 429 29 392
697 13 4 0.0 430 29 391
698 13 2 0.0 430 28 391
699 13 4 0.0 431 27 392
700 14 0 0.0 84 266 371
701 14 1 0.0 83 267 372
702 14 2 0.0 83 268 371
703 14 3 0.0 82 269 372
704 14 4 0.0 83 268 373
705 14 5 0.0 84 268 372
706 14 0 0.0 83 267 373
707 14 6 0.0 84 267 372
708 14 3 0.0 83 268 372
709 14 5 0.0 84 269 372
710 14 1 0.0 85 270 371
711 14 7 0.0 85 271 372
712 14 8 0.0 84 271 373
713 14 6 0.0 83 270 372
714 14 9 0.0 82 270 373
715 14 8 0.0 81 270 372
716 14 6 0.0 80 271 371
717 14 6 0.0 81 271 372
718 14 6 0.0 81 271 373
719 14 7 0.0 81 270 373
720 14 3 0.0 80 270 374
721 14 5 0.0 81 271 374
722 14 7 0.0 80 270 375
723 14 5 0.0 80 271 376
724 14 1 0.0 79 272 376
725 14 3 0.0 79 272 375
726 14 4 0.0 79 271 375
727 14 3 0.0 78 271 376
728 14 3 0.0 78 272 375
729 14 5 0.0 78 273 375
730 14 6 0.0 79 273 376
731 14 4 0.0 78 274 376
732 14 2 0.0 77 275 376
733 14 2 0.0 78 275 375
734 14 2 0.0 77 274 376
735 14 2 0.0 76 275 375
736 14 2 0.0 75 276 376
737 14 4 0.0 75 277 375
738 14 2 0.0 76 278 374
739 14 2 0.0 76 279 373
740 14 2 0.0 75 278 372
741 14 2 0.0 74 279 372
742 14 2 0.0 75 279 373
743 14 2 0.0 75 280 373
744 14 2 0.0 74 280 373
745 14 2 0.0 73 281 373
746 14 2 0.0 72 281 374
747 14 4 0.0 71 282 375
748 14 2 0.0 72 283 375
749 14 4 0.0 73 282 376
750 15 0 0.0 73 111 227
751 15 1 0.0 73 112 226
752 15 2 0.0 72 113 226
753 15 3 0.0 73 113 226
754 15 4 0.0 73 113 227
755 15 5 0.0 74 114 228
756 15 0 0.0 74 115 227
757 15 6 0.0 75 114 226
758 15 3 0.0 75 115 226
759 15 5 0.0 75 116 226
760 15 1 0.0 74 115 226
761 15 7 0.0 74 116 225
762 15 8 0.0 74 117 224
763 15 6 0.0 73 118 224
764 15 9 0.0 73 118 223
765 15 8 0.0 74 118 222
766 15 6 0.0 75 117 223
767 15 6 0.0 75 117 222
768 15 6 0.0 76 118 222
769 15 7 0.0 76 118 221
770 15 3 0.0 76 119 220
771 15 5 0.0 75 118 221
772 15 7 0.0 76 119 221
773 15 5 0.0 75 120 220
774 15 1 0.0 75 121 220
775 15 3 0.0 76 122 221
776 15 4 0.0 75 123 222
777 15 3 0.0 75 124 223
778 15 3 0.0 74 123 223
779 15 5 0.0 74 122 223
780 15 6 0.0 75 121 224
781 15 4 0.0 75 122 225
782 15 2 0.0 74 121 226
783 15 2 0.0 74 122 226
784 15 2 0.0 73 122 226
785 15 2 0.0 73 121 226
786 15 2 0.0 73 120 225
787 15 4 0.0 72 119 224
788 15 2 0.0 72 118 224
789 15 2 0.0 71 118 224
790 15 2 0.0 71 117 225
791 15 2 0.0 71 117 226
792 15 2 0.0 70 116 227
793 15 2 0.0 71 115 226
794 15 2 0.0 71 116 225
795 15 2 0.0 72 115 226
796 15 2 0.0 71 116 227
797 15 4 0.0 70 116 228
798 15 2 0.0 71 115 228
799 15 4 0.0 71 114 229
800 16 0 0.0 460 65 267
801 16 1 0.0 459 64 267
802 16 2 0.0 459 63 268
803 16 3 0.0 459 64 268
804 16 4 0.0 458 64 268
805 16 5 0.0 457 65 267
806 16 0 0.0 456 65 267
807 16 6 0.0 455 65 268
808 16 3 0.0 454 65 268
809 16 5 0.0 455 66 268
810 16 1 0.0 455 66 269
811 16 7 0.0 456 66 269
812 16 8 0.0 456 67 268
813 16 6 0.0 455 68 269
814 16 9 0.0 456 69 270
815 16 8 0.0 455 70 269
816 16 6 0.0 454 69 270
817 16 6 0.0 453 69 270
818 16 6 0.0 454 69 269
819 16 7 0.0 453 69 268
820 16 3 0.0 452 70 268
821 16 5 0.0 451 71 268
822 16 7 0.0 450 71 269
823 16 5 0.0 451 72 269
824 16 1 0.0 450 73 268
825 16 3 0.0 449 72 269
826 16 4 0.0 449 71 268
827 16 3 0.0 448 71 269
828 16 3 0.0 449 71 269
829 16 5 0.0 449 71 270
830 16 6 0.0 448 72 270
831 16 4 0.0 448 72 269
832 16 2 0.0 448 72 268
833 16 2 0.0 447 71 269
834 16 2 0.0 447 72 268
835 16 2 0.0 446 71 267
836 16 2 0.0 446 72 268
837 16 4 0.0 445 73 267
838 16 2 0.0 444 72 266
839 16 2 0.0 445 71 265
840 16 2 0.0 446 71 264
841 16 2 0.0 447 71 265
842 16 2 0.0 448 70 265
843 16 2 0.0 447 70 266
844 16 2 0.0 448 69 266
845 16 2 0.0 449 69 267
846 16 2 0.0 450 70 268
847 16 4 0.0 451 69 267
848 16 2 0.0 452 70 266
849 16 4 0.0 451 70 265
850 17 0 0.0 427 265 444
851 17 1 0.0 428 266 444
852 17 2 0.0 427 265 445
853 17 3 0.0 426 266 446
854 17 4 0.0 425 266 446
855 17 5 0.0 426 265 446
856 17 0 0.0 427 266 447
857 17 6 0.0 428 267 448
858 17 3 0.0 429 268 448
859 17 5 0.0 428 269 447
860 17 1 0.0 428 269 448
861 17 7 0.0 429 270 448
862 17 8 0.0 430 269 447
863 17 6 0.0 431 268 446
864 17 9 0.0 430 267 446
865 17 8 0.0 431 268 447
866 17 6 0.0 432 268 447
867 17 6 0.0 433 268 448
868 17 6 0.0 433 269 449
869 17 7 0.0 434 270 449
870 17 3 0.0 433 270 448
871 17 5 0.0 433 269 447
872 17 7 0.0 434 270 446
873 17 5 0.0 435 271 446
874 17 1 0.0 436 270 445
875 17 3 0.0 436 271 445
876 17 4 0.0 435 272 444
877 17 3 0.0 435 272 443
878 17 3 0.0 434 271 443
879 17 5 0.0 433 272 443
880 17 6 0.0 433 273 442
881 17 4 0.0 434 272 442
882 17 2 0.0 434 271 442
883 17 2 0.0 433 271 442
884 17 2 0.0 433 271 441
885 17 2 0.0 434 270 442
886 17 2 0.0 435 269 441
887 17 4 0.0 435 269 442
888 17 2 0.0 436 270 442
889 17 2 0.0 435 271 443
890 17 2 0.0 436 270 444
891 17 2 0.0 435 271 444
892 17 2 0.0 436 271 444
893 17 2 0.0 436 270 443
894 17 2 0.0 437 271 443
895 17 2 0.0 438 272 442
896 17 2 0.0 437 271 442
897 17 4 0.0 438 270 443
898 17 2 0.0 438 270 444
899 17 4 0.0 439 269 444
900 18 0 0.0 307 234 428
901 18 1 0.0 306 235 429
902 18 2 0.0 307 236 428
903 18 3 0.0 306 237 429
904 18 4 0.0 307 238 429
905 18 5 0.0 306 239 430
906 18 0 0.0 305 240 429
907 18 6 0.0 304 241 430
908 18 3 0.0 305 241 430
909 18 5 0.0 305 242 431
910 18 1 0.0 304 241 431
911 18 7 0.0 303 242 430
912 18 8 0.0 303 242 429
913 18 6 0.0 303 243 429
914 18 9 0.0 302 242 429
915 18 8 0.0 301 242 428
916 18 6 0.0 301 243 428
917 18 6 0.0 301 243 427
918 18 6 0.0 301 242 427
919 18 7 0.0 302 242 428
920 18 3 0.0 303 241 427
921 18 5 0.0 302 241 427
922 18 7 0.0 303 240 426
923 18 5 0.0 302 239 427
924 18 1 0.0 303 240 427
925 18 3 0.0 302 240 426
926 18 4 0.0 301 240 427
927 18 3 0.0 301 239 428
928 18 3 0.0 302 240 428
929 18 5 0.0 303 241 429
930 18 6 0.0 302 241 429
931 18 4 0.0 301 240 430
932 18 2 0.0 301 239 429
933 18 2 0.0 300 239 430
934 18 2 0.0 300 239 429
935 18 2 0.0 299 238 428
936 18 2 0.0 299 239 429
937 18 4 0.0 298 240 429
938 18 2 0.0 297 241 428
939 18 2 0.0 296 241 428
940 18 2 0.0 297 242 428
941 18 2 0.0 298 242 427
942 18 2 0.0 297 243 426
943 18 2 0.0 296 244 426
944 18 2 0.0 297 244 426
945 18 2 0.0 296 245 426
946 18 2 0.0 295 245 427
947 18 4 0.0 294 245 428
948 18 2 0.0 293 246 429
949 18 4 0.0 292 247 428
950 19 0 0.0 98 62 72
951 19 1 0.0 98 63 72
952 19 2 0.0 98 62 73
953 19 3 0.0 99 61 74
954 19 4 0.0 100 60 75
955 19 5 0.0 101 60 74
956 19 0 0.0 101 61 73
957 19 6 0.0 100 61 72
958 19 3 0.0 101 61 71
959 19 5 0.0 102 62 70
960 19 1 0.0 103 62 70
961 19 7 0.0 103 62 69
962 19 8 0.0 102 61 70
963 19 6 0.0 103 60 70
964 19 9 0.0 103 59 70
965 19 8 0.0 102 59 69
966 19 6 0.0 101 59 69
967 19 6 0.0 101 59 70
968 19 6 0.0 100 60 69
969 19 7 0.0 100 60 70
970 19 3 0.0 99 59 69
971 19 5 0.0 98 59 68
972 19 7 0.0 99 58 69
973 19 5 0.0 98 57 68
974 19 1 0.0 97 56 67
975 19 3 0.0 98 55 67
976 19 4 0.0 99 55 67
977 19 3 0.0 100 56 68
978 19 3 0.0 101 57 69
979 19 5 0.0 102 57 68
980 19 6 0.0 102 58 68
981 19 4 0.0 103 59 67
982 19 2 0.0 103 60 66
983 19 2 0.0 102 59 66
984 19 2 0.0 102 58 67
985 19 2 0.0 102 58 66
986 19 2 0.0 101 57 66
987 19 4 0.0 102 56 65
988 19 2 0.0 101 56 66
989 19 2 0.0 100 55 67
990 19 2 0.0 101 54 68
991 19 2 0.0 100 55 68
992 19 2 0.0 100 54 67
993 19 2 0.0 101 55 67
994 19 2 0.0 102 56 68
995 19 2 0.0 102 55 67
996 19 2 0.0 103 54 67
997 19 4 0.0 103 53 67
998 19 2 0.0 103 52 66
999 19 4 0.0 104 53 66
1000 20 0 0.0 479 471 266
1001 20 1 0.0 479 472 266
1002 20 2 0.0 478 471 267
1003 20 3 0.0 477 470 268
1004 20 4 0.0 478 471 269
1005 20 5 0.0 479 472 268
1006 20 0 0.0 480 473 268
1007 20 6 0.0 480 472 269
1008 20 3 0.0 479 473 268
1009 20 5 0.0 479 474 267
1010 20 1 0.0 480 474 266
1011 20 7 0.0 480 473 267
1012 20 8 0.0 479 473 266
1013 20 6 0.0 480 473 266
1014 20 9 0.0 481 473 265
1015 20 8 0.0 480 474 264
1016 20 6 0.0 479 473 263
1017 20 6 0.0 479 473 262
1018 20 6 0.0 480 473 263
1019 20 7 0.0 481 474 262
1020 20 3 0.0 482 473 262
1021 20 5 0.0 481 473 262
1022 20 7 0.0 481 472 262
1023 20 5 0.0 481 472 261
1024 20 1 0.0 481 471 262
1025 20 3 0.0 480 472 263
1026 20 4 0.0 479 472 263
1027 20 3 0.0 480 472 264
1028 20 3 0.0 481 471 264
1029 20 5 0.0 480 471 265
1030 20 6 0.0 480 472 265
1031 20 4 0.0 481 473 264
1032 20 2 0.0 481 474 263
1033 20 2 0.0 482 475 263
1034 20 2 0.0 483 474 262
1035 20 2 0.0 484 474 263
1036 20 2 0.0 484 473 263
1037 20 4 0.0 485 473 264
1038 20 2 0.0 486 474 263
1039 20 2 0.0 485 475 262
1040 20 2 0.0 485 475 261
1041 20 2 0.0 485 474 262
1042 20 2 0.0 486 475 263
1043 20 2 0.0 486 476 262
1044 20 2 0.0 486 477 263
1045 20 2 0.0 487 477 263
1046 20 2 0.0 487 477 262
1047 20 4 0.0 487 476 263
1048 20 2 0.0 487 476 264
1049 20 4 0.0 487 476 265
1050 21 0 0.0 370 194 60
1051 21 1 0.0 371 194 60
1052 21 2 0.0 371 195 61
1053 21 3 0.0 370 195 60
1054 21 4 0.0 369 194 59
1055 21 5 0.0 369 195 60
1056 21 0 0.0 369 196 60
1057 21 6 0.0 369 195 59
1058 21 3 0.0 368 196 60
1059 21 5 0.0 369 195 61
1060 21 1 0.0 369 194 62
1061 21 7 0.0 370 193 63
1062 21 8 0.0 370 192 62
1063 21 6 0.0 371 193 63
1064 21 9 0.0 371 194 64
1065 21 8 0.0 371 194 65
1066 21 6 0.0 371 195 64
1067 21 6 0.0 372 195 63
1068 21 6 0.0 371 196 62
1069 21 7 0.0 370 197 62
1070 21 3 0.0 369 196 63
1071 21 5 0.0 370 195 62
1072 21 7 0.0 370 196 63
1073 21 5 0.0 370 197 63
1074 21 1 0.0 370 196 62
1075 21 3 0.0 369 197 62
1076 21 4 0.0 368 197 63
1077 21 3 0.0 369 197 63
1078 21 3 0.0 369 198 62
1079 21 5 0.0 370 199 63
1080 21 6 0.0 370 200 62
1081 21 4 0.0 369 200 61
1082 21 2 0.0 370 199 62
1083 21 2 0.0 369 199 61
1084 21 2 0.0 370 200 60
1085 21 2 0.0 370 201 60
1086 21 2 0.0 370 201 61
1087 21 4 0.0 369 202 61
1088 21 2 0.0 368 203 60
1089 21 2 0.0 369 203 61
1090 21 2 0.0 369 203 60
1091 21 2 0.0 368 202 60
1092 21 2 0.0 368 203 59
1093 21 2 0.0 367 202 59
1094 21 2 0.0 367 201 59
1095 21 2 0.0 367 200 60
1096 21 2 0.0 367 201 61
1097 21 4 0.0 368 200 60
1098 21 2 0.0 369 201 59
1099 21 4 0.0 369 200 58
1100 22 0 0.0 361 227 85
1101 22 1 0.0 360 227 85
1102 22 2 0.0 361 228 86
1103 22 3 0.0 362 227 86
1104 22 4 0.0 361 228 87
1105 22 5 0.0 360 228 88
1106 22 0 0.0 359 227 87
1107 22 6 0.0 360 227 88
1108 22 3 0.0 359 228 87
1109 22 5 0.0 359 227 86
1110 22 1 0.0 360 226 87
1111 22 7 0.0 361 225 88
1112 22 8 0.0 362 224 87
1113 22 6 0.0 363 223 88
1114 22 9 0.0 363 224 89
1115 22 8 0.0 364 224 89
1116 22 6 0.0 365 224 90
1117 22 6 0.0 366 223 91
1118 22 6 0.0 366 224 92
1119 22 7 0.0 365 223 93
1120 22 3 0.0 366 222 92
1121 22 5 0.0 366 222 93
1122 22 7 0.0 367 222 92
1123 22 5 0.0 366 221 92
1124 22 1 0.0 367 222 91
1125 22 3 0.0 368 221 91
1126 22 4 0.0 368 222 90
1127 22 3 0.0 367 223 89
1128 22 3 0.0 366 222 89
1129 22 5 0.0 367 222 89
1130 22 6 0.0 368 221 90
1131 22 4 0.0 369 222 90
1132 22 2 0.0 370 223 91
1133 22 2 0.0 371 224 90
1134 22 2 0.0 370 225 89
1135 22 2 0.0 371 226 88
1136 22 2 0.0 370 226 87
1137 22 4 0.0 369 226 86
1138 22 2 0.0 370 227 85
1139 22 2 0.0 369 227 86
1140 22 2 0.0 369 227 87
1141 22 2 0.0 369 226 88
1142 22 2 0.0 368 227 89
1143 22 2 0.0 369 228 90
1144 22 2 0.0 368 227 91
1145 22 2 0.0 367 228 91
1146 22 2 0.0 368 227 90
1147 22 4 0.0 369 227 91
1148 22 2 0.0 370 227 91
1149 22 4 0.0 369 227 92
1150 23 0 0.0 221 145 348
1151 23 1 0.0 222 144 348
1152 23 2 0.0 222 143 348
1153 23 3 0.0 221 142 348
1154 23 4 0.0 221 141 348
1155 23 5 0.0 220 141 349
1156 23 0 0.0 221 140 348
1157 23 6 0.0 222 139 349
1158 23 3 0.0 222 140 349
1159 23 5 0.0 223 139 350
1160 23 1 0.0 224 138 350
1161 23 7 0.0 225 139 351
1162 23 8 0.0 224 138 352
1163 23 6 0.0 225 138 351
1164 23 9 0.0 225 138 352
1165 23 8 0.0 224 138 353
1166 23 6 0.0 224 137 353
1167 23 6 0.0 225 137 354
1168 23 6 0.0 226 137 355
1169 23 7 0.0 226 138 354
1170 23 3 0.0 225 138 355
1171 23 5 0.0 224 139 354
1172 23 7 0.0 225 139 355
1173 23 5 0.0 224 138 354
1174 23 1 0.0 223 138 355
1175 23 3 0.0 222 137 354
1176 23 4 0.0 222 137 353
1177 23 3 0.0 221 136 354
1178 23 3 0.0 222 136 353
1179 23 5 0.0 223 137 352
1180 23 6 0.0 222 138 353
1181 23 4 0.0 221 139 352
1182 23 2 0.0 221 140 352
1183 23 2 0.0 221 140 353
1184 23 2 0.0 222 141 352
1185 23 2 0.0 223 142 352
1186 23 2 0.0 224 143 353
1187 23 4 0.0 223 144 353
1188 23 2 0.0 224 145 352
1189 23 2 0.0 225 144 351
1190 23 2 0.0 225 144 350
1191 23 2 0.0 225 144 349
1192 23 2 0.0 225 145 349
1193 23 2 0.0 225 145 350
1194 23 2 0.0 224 144 350
1195 23 2 0.0 225 143 351
1196 23 2 0.0 225 142 351
1197 23 4 0.0 225 142 350
1198 23 2 0.0 224 141 349
1199 23 4 0.0 224 140 349
1200 24 0 0.0 415 3 114
1201 24 1 0.0 414 3 113
1202 24 2 0.0 414 4 114
1203 24 3 0.0 415 4 114
1204 24 4 0.0 415 5 115
1205 24 5 0.0 415 6 114
1206 24 0 0.0 414 5 114
1207 24 6 0.0 414 6 113
1208 24 3 0.0 413 5 112
1209 24 5 0.0 414 5 111
1210 24 1 0.0 415 4 112
1211 24 7 0.0 416 3 111
1212 24 8 0.0 416 2 110
1213 24 6 0.0 415 2 111
1214 24 9 0.0 416 3 110
1215 24 8 0.0 415 3 109
1216 24 6 0.0 414 3 108
1217 24 6 0.0 414 4 109
1218 24 6 0.0 415 5 109
1219 24 7 0.0 416 5 110
1220 24 3 0.0 417 4 109
1221 24 5 0.0 417 3 109
1222 24 7 0.0 418 3 109
1223 24 5 0.0 417 4 108
1224 24 1 0.0 418 4 109
1225 24 3 0.0 418 5 108
1226 24 4 0.0 419 4 107
1227 24 3 0.0 420 3 107
1228 24 3 0.0 419 2 108
1229 24 5 0.0 418 1 107
1230 24 6 0.0 418 1 106
1231 24 4 0.0 417 1 107
1232 24 2 0.0 418 2 107
1233 24 2 0.0 419 1 106
1234 24 2 0.0 418 2 105
1235 24 2 0.0 417 2 106
1236 24 2 0.0 418 3 107
1237 24 4 0.0 417 3 107
1238 24 2 0.0 416 3 108
1239 24 2 0.0 417 2 109
1240 24 2 0.0 418 1 109
1241 24 2 0.0 418 2 109
1242 24 2 0.0 418 2 108