ITEM: TIMESTEP
0
ITEM: NUMBER OF ATOMS
10000
ITEM: BOX BOUNDS pp pp pp
0 500
0 500
0 500
ITEM: ATOMS id type mol x y z bP
0 0 0 67 79 219 1
1 1 0 67 78 220 0
2 2 0 68 77 219 -1
3 3 0 67 77 220 -1
4 4 0 68 77 220 -1
5 5 0 69 76 221 -1
6 0 0 68 77 222 -1
7 6 0 67 77 222 -1
8 3 0 66 77 223 -1
9 5 0 67 78 222 -1
10 1 0 67 77 221 -1
11 7 0 66 76 222 -1
12 8 0 66 75 221 -1
13 6 0 65 75 220 -1
14 9 0 66 76 219 -1
15 8 0 65 77 218 -1
16 6 0 64 77 219 -1
17 6 0 64 76 218 -1
18 6 0 65 75 217 -1
19 7 0 64 74 218 -1
20 3 0 63 75 217 -1
21 5 0 64 75 217 -1
22 7 0 63 76 217 -1
23 5 0 62 76 218 -1
24 1 0 61 75 217 -1
25 3 0 62 74 216 -1
26 4 0 63 74 215 -1
27 3 0 62 73 215 -1
28 3 0 61 72 216 -1
29 5 0 61 73 217 -1
30 6 0 62 72 216 -1
31 4 0 61 71 216 -1
32 2 0 60 71 217 -1
33 2 0 60 70 216 -1
34 2 0 60 70 215 -1
35 2 0 59 70 214 -1
36 2 0 58 70 213 -1
37 4 0 58 71 212 -1
38 2 0 59 71 212 -1
39 2 0 60 71 213 -1
40 2 0 61 71 212 -1
41 2 0 60 70 213 -1
42 2 0 61 69 212 -1
43 2 0 60 69 212 -1
44 2 0 61 69 211 -1
45 2 0 60 69 210 -1
46 2 0 59 68 209 -1
47 4 0 59 67 209 -1
48 2 0 60 67 208 -1
49 4 0 59 66 208 -1
50 0 1 42 4 382 60
51 1 1 41 3 383 56
52 2 1 42 3 383 -1
53 3 1 43 2 382 -1
54 4 1 42 2 383 -1
55 5 1 41 2 383 -1
56 0 1 41 3 382 51
57 6 1 42 4 383 -1
58 3 1 42 3 382 -1
59 5 1 43 4 382 -1
60 1 1 43 3 383 50
61 7 1 43 4 383 -1
62 8 1 42 5 383 -1
63 6 1 41 6 384 -1
64 9 1 40 5 383 -1
65 8 1 41 6 382 -1
66 6 1 40 6 381 -1
67 6 1 39 5 381 -1
68 6 1 40 6 382 -1
69 7 1 41 5 383 -1
70 3 1 40 5 384 -1
71 5 1 41 6 385 -1
72 7 1 40 7 384 -1
73 5 1 41 6 383 -1
74 1 1 42 6 383 -1
75 3 1 43 7 384 -1
76 4 1 42 7 383 -1
77 3 1 42 8 382 -1
78 3 1 42 8 381 -1
79 5 1 43 9 381 -1
80 6 1 44 8 381 -1
81 4 1 45 8 380 -1
82 2 1 46 7 381 -1
83 2 1 45 8 381 -1
84 2 1 46 9 382 -1
85 2 1 47 10 382 -1
86 2 1 46 11 381 -1
87 4 1 46 12 380 -1
88 2 1 46 13 380 -1
89 2 1 47 13 381 -1
90 2 1 47 13 382 -1
91 2 1 48 12 383 -1
92 2 1 49 11 384 -1
93 2 1 50 12 385 -1
94 2 1 50 12 386 -1
95 2 1 50 13 387 -1
96 2 1 51 13 386 -1
97 4 1 51 12 386 -1
98 2 1 52 11 385 -1
99 4 1 51 10 384 -1
100 0 2 9 383 494 110
101 1 2 8 384 493 106
102 2 2 7 385 494 -1
103 3 2 7 386 493 -1
104 4 2 6 385 494 -1
105 5 2 7 385 493 -1
106 0 2 8 385 493 101
107 6 2 7 384 494 -1
108 3 2 7 383 494 -1
109 5 2 8 383 494 -1
110 1 2 9 383 495 100
111 7 2 9 384 496 -1
112 8 2 8 385 497 -1
113 6 2 7 385 497 -1
114 9 2 7 386 498 -1
115 8 2 8 387 499 -1
116 6 2 9 386 0 -1
117 6 2 8 387 1 -1
118 6 2 7 387 0 -1
119 7 2 7 386 499 -1
120 3 2 6 386 499 -1
121 5 2 6 386 0 -1
122 7 2 7 386 0 -1
123 5 2 7 385 499 -1
124 1 2 6 384 0 -1
125 3 2 6 385 0 -1
126 4 2 5 386 1 -1
127 3 2 6 387 1 -1
128 3 2 5 388 1 -1
129 5 2 5 389 1 -1
130 6 2 5 389 2 -1
131 4 2 4 389 3 -1
132 2 2 4 390 3 -1
133 2 2 5 390 2 -1
134 2 2 6 389 1 -1
135 2 2 6 388 1 -1
136 2 2 7 389 0 -1
137 4 2 6 390 1 -1
138 2 2 6 391 1 -1
139 2 2 5 390 1 -1
140 2 2 4 389 2 -1
141 2 2 4 390 2 -1
142 2 2 4 391 2 -1
143 2 2 4 391 3 -1
144 2 2 5 392 2 -1
145 2 2 6 393 2 -1
146 2 2 6 392 2 -1
147 4 2 7 391 3 -1
148 2 2 6 392 3 -1
149 4 2 7 393 3 -1
150 0 3 101 415 16 -1
151 1 3 101 415 17 156
152 2 3 102 415 16 -1
153 3 3 103 415 15 -1
154 4 3 102 414 15 -1
155 5 3 102 413 15 -1
156 0 3 102 414 16 151
157 6 3 103 413 17 -1
158 3 3 103 414 16 -1
159 5 3 104 413 15 -1
160 1 3 103 414 14 -1
161 7 3 104 415 15 -1
162 8 3 105 416 14 -1
163 6 3 106 417 15 -1
164 9 3 107 417 16 -1
165 8 3 108 418 16 -1
166 6 3 109 419 17 -1
167 6 3 108 419 16 -1
168 6 3 109 420 16 -1
169 7 3 110 420 16 -1
170 3 3 111 420 17 -1
171 5 3 110 419 18 -1
172 7 3 110 420 18 -1
173 5 3 111 419 19 -1
174 1 3 112 418 19 -1
175 3 3 111 417 18 -1
176 4 3 110 417 19 -1
177 3 3 109 416 20 -1
178 3 3 108 417 21 -1
179 5 3 108 418 20 -1
180 6 3 109 417 20 -1
181 4 3 108 418 19 -1
182 2 3 109 418 18 -1
183 2 3 109 417 17 -1
184 2 3 108 417 16 -1
185 2 3 108 418 15 -1
186 2 3 107 419 16 -1
187 4 3 107 420 16 -1
188 2 3 108 421 15 -1
189 2 3 109 421 15 -1
190 2 3 108 420 15 -1
191 2 3 108 419 14 -1
192 2 3 109 419 13 -1
193 2 3 108 418 12 -1
194 2 3 108 417 13 -1
195 2 3 107 416 12 -1
196 2 3 108 416 13 -1
197 4 3 107 415 13 -1
198 2 3 107 414 14 -1
199 4 3 108 414 14 -1
200 0 4 461 197 383 201
201 1 4 462 198 384 200
202 2 4 463 197 383 -1
203 3 4 463 198 384 -1
204 4 4 464 198 385 -1
205 5 4 465 199 386 -1
206 0 4 466 200 387 210
207 6 4 467 200 388 -1
208 3 4 468 200 388 -1
209 5 4 467 199 387 -1
210 1 4 467 200 387 206
211 7 4 466 201 386 -1
212 8 4 467 202 385 -1
213 6 4 466 201 385 -1
214 9 4 466 202 384 -1
215 8 4 467 203 384 -1
216 6 4 467 203 385 -1
217 6 4 468 202 384 -1
218 6 4 468 203 385 -1
219 7 4 468 204 385 -1
220 3 4 468 205 385 -1
221 5 4 468 206 385 -1
222 7 4 469 205 385 -1
223 5 4 469 204 386 -1
224 1 4 468 203 387 -1
225 3 4 469 204 388 -1
226 4 4 469 203 387 -1
227 3 4 469 202 387 -1
228 3 4 470 203 387 -1
229 5 4 471 204 387 -1
230 6 4 471 203 387 -1
231 4 4 471 203 388 -1
232 2 4 472 202 388 -1
233 2 4 473 202 389 -1
234 2 4 474 203 388 -1
235 2 4 474 204 388 -1
236 2 4 475 203 387 -1
237 4 4 476 203 387 -1
238 2 4 476 202 388 -1
239 2 4 477 202 388 -1
240 2 4 478 202 389 -1
241 2 4 477 203 389 -1
242 2 4 478 202 388 -1
243 2 4 478 202 387 -1
244 2 4 479 203 387 -1
245 2 4 479 204 387 -1
246 2 4 480 203 387 -1
247 4 4 479 202 386 -1
248 2 4 478 203 386 -1
249 4 4 478 203 387 -1
250 0 5 448 363 43 251
251 1 5 447 364 44 250
252 2 5 448 363 44 -1
253 3 5 449 362 43 -1
254 4 5 448 361 42 -1
255 5 5 448 361 43 -1
256 0 5 449 360 43 260
257 6 5 449 360 44 -1
258 3 5 448 359 44 -1
259 5 5 449 360 45 -1
260 1 5 450 361 44 256
261 7 5 451 360 45 -1
262 8 5 450 359 44 -1
263 6 5 449 359 45 -1
264 9 5 448 359 45 -1
265 8 5 448 358 44 -1
266 6 5 447 359 44 -1
267 6 5 446 360 43 -1
268 6 5 447 360 42 -1
269 7 5 446 359 43 -1
270 3 5 445 360 44 -1
271 5 5 446 360 44 -1
272 7 5 445 359 43 -1
273 5 5 444 360 44 -1
274 1 5 443 359 44 -1
275 3 5 444 359 45 -1
276 4 5 443 360 44 -1
277 3 5 442 361 45 -1
278 3 5 441 361 46 -1
279 5 5 440 360 45 -1
280 6 5 440 359 46 -1
281 4 5 439 360 47 -1
282 2 5 440 361 46 -1
283 2 5 439 360 45 -1
284 2 5 438 360 45 -1
285 2 5 438 361 44 -1
286 2 5 439 361 44 -1
287 4 5 439 362 44 -1
288 2 5 438 362 45 -1
289 2 5 438 362 44 -1
290 2 5 438 361 43 -1
291 2 5 439 361 42 -1
292 2 5 439 362 42 -1
293 2 5 438 362 43 -1
294 2 5 437 361 44 -1
295 2 5 437 361 45 -1
296 2 5 438 362 46 -1
297 4 5 437 363 46 -1
298 2 5 436 363 46 -1
299 4 5 435 364 47 -1
300 0 6 492 290 13 301
301 1 6 491 289 12 300
302 2 6 490 288 11 -1
303 3 6 490 289 11 -1
304 4 6 489 290 12 -1
305 5 6 488 289 12 -1
306 0 6 488 290 12 -1
307 6 6 489 291 11 -1
308 3 6 490 290 10 -1
309 5 6 491 291 10 -1
310 1 6 492 292 11 -1
311 7 6 492 293 12 -1
312 8 6 493 294 13 -1
313 6 6 492 293 14 -1
314 9 6 492 294 15 -1
315 8 6 493 295 14 -1
316 6 6 494 294 13 -1
317 6 6 495 293 14 -1
318 6 6 494 293 13 -1
319 7 6 495 293 12 -1
320 3 6 496 294 11 -1
321 5 6 495 295 10 -1
322 7 6 494 294 10 -1
323 5 6 493 294 10 -1
324 1 6 492 294 9 -1
325 3 6 493 295 9 -1
326 4 6 493 295 10 -1
327 3 6 492 296 10 -1
328 3 6 493 297 11 -1
329 5 6 493 296 11 -1
330 6 6 492 296 11 -1
331 4 6 491 295 11 -1
332 2 6 491 294 11 -1
333 2 6 490 293 11 -1
334 2 6 491 293 12 -1
335 2 6 490 292 11 -1
336 2 6 489 292 11 -1
337 4 6 488 293 11 -1
338 2 6 488 292 11 -1
339 2 6 487 291 10 -1
340 2 6 488 290 11 -1
341 2 6 488 289 10 -1
342 2 6 489 289 11 -1
343 2 6 489 290 10 -1
344 2 6 488 289 9 -1
345 2 6 489 289 8 -1
346 2 6 488 289 7 -1
347 4 6 488 290 6 -1
348 2 6 487 289 5 -1
349 4 6 486 290 6 -1
350 0 7 483 79 141 351
351 1 7 484 78 141 350
352 2 7 485 78 142 -1
353 3 7 486 78 143 -1
354 4 7 486 79 143 -1
355 5 7 487 80 144 -1
356 0 7 488 81 145 360
357 6 7 488 81 144 -1
358 3 7 487 82 145 -1
359 5 7 487 82 144 -1
360 1 7 487 81 144 356
361 7 7 486 82 145 -1
362 8 7 487 82 146 -1
363 6 7 488 81 147 -1
364 9 7 488 81 148 -1
365 8 7 488 82 148 -1
366 6 7 488 83 149 -1
367 6 7 488 84 148 -1
368 6 7 487 83 148 -1
369 7 7 488 83 147 -1
370 3 7 488 84 147 -1
371 5 7 489 83 148 -1
372 7 7 489 82 147 -1
373 5 7 488 83 148 -1
374 1 7 489 84 147 -1
375 3 7 489 84 148 -1
376 4 7 489 84 149 -1
377 3 7 490 85 150 -1
378 3 7 489 85 151 -1
379 5 7 489 84 151 -1
380 6 7 488 85 151 -1
381 4 7 487 85 150 -1
382 2 7 486 85 151 -1
383 2 7 485 86 150 -1
384 2 7 486 87 149 -1
385 2 7 485 88 150 -1
386 2 7 485 87 149 -1
387 4 7 484 88 150 -1
388 2 7 485 88 149 -1
389 2 7 484 88 149 -1
390 2 7 485 89 148 -1
391 2 7 486 90 147 -1
392 2 7 486 89 148 -1
393 2 7 487 90 147 -1
394 2 7 487 91 147 -1
395 2 7 486 91 147 -1
396 2 7 486 91 146 -1
397 4 7 485 90 146 -1
398 2 7 485 91 145 -1
399 4 7 484 92 146 -1
400 0 8 236 114 250 401
401 1 8 237 114 251 400
402 2 8 237 115 251 -1
403 3 8 237 114 250 -1
404 4 8 237 113 249 -1
405 5 8 238 112 249 -1
406 0 8 238 113 250 410
407 6 8 239 114 250 -1
408 3 8 238 113 249 -1
409 5 8 239 114 248 -1
410 1 8 239 114 249 406
411 7 8 238 114 248 -1
412 8 8 238 115 249 -1
413 6 8 237 115 249 -1
414 9 8 238 116 248 -1
415 8 8 239 115 247 -1
416 6 8 240 115 247 -1
417 6 8 241 116 248 -1
418 6 8 242 117 247 -1
419 7 8 242 117 248 -1
420 3 8 241 117 249 -1
421 5 8 240 116 248 -1
422 7 8 239 117 249 -1
423 5 8 238 118 248 -1
424 1 8 239 118 249 -1
425 3 8 240 119 248 -1
426 4 8 239 120 249 -1
427 3 8 240 121 248 -1
428 3 8 240 120 248 -1
429 5 8 239 121 249 -1
430 6 8 238 122 249 -1
431 4 8 238 123 250 -1
432 2 8 239 122 251 -1
433 2 8 240 123 252 -1
434 2 8 239 122 252 -1
435 2 8 238 123 251 -1
436 2 8 238 124 252 -1
437 4 8 237 123 253 -1
438 2 8 236 123 252 -1
439 2 8 235 124 251 -1
440 2 8 234 124 252 -1
441 2 8 233 125 251 -1
442 2 8 233 124 251 -1
443 2 8 233 123 250 -1
444 2 8 232 124 251 -1
445 2 8 231 123 252 -1
446 2 8 230 124 252 -1
447 4 8 229 123 252 -1
448 2 8 230 122 252 -1
449 4 8 229 122 252 -1
450 0 9 124 35 229 451
451 1 9 124 36 229 450
452 2 9 125 35 230 -1
453 3 9 124 36 230 -1
454 4 9 125 36 230 -1
455 5 9 125 36 231 -1
456 0 9 124 37 230 460
457 6 9 123 38 229 -1
458 3 9 123 37 228 -1
459 5 9 124 37 229 -1
460 1 9 123 36 229 456
461 7 9 122 36 228 -1
462 8 9 123 35 227 -1
463 6 9 123 34 226 -1
464 9 9 123 34 227 -1
465 8 9 122 33 228 -1
466 6 9 121 34 227 -1
467 6 9 121 35 226 -1
468 6 9 122 35 225 -1
469 7 9 123 35 224 -1
470 3 9 123 34 224 -1
471 5 9 123 33 224 -1
472 7 9 123 32 223 -1
473 5 9 124 31 224 -1
474 1 9 123 30 225 -1
475 3 9 124 31 225 -1
476 4 9 124 30 226 -1
477 3 9 125 29 227 -1
478 3 9 126 30 228 -1
479 5 9 127 30 229 -1
480 6 9 126 30 229 -1
481 4 9 126 29 228 -1
482 2 9 126 28 227 -1
483 2 9 125 29 226 -1
484 2 9 126 29 227 -1
485 2 9 125 28 228 -1
486 2 9 125 28 227 -1
487 4 9 124 29 228 -1
488 2 9 124 28 229 -1
489 2 9 123 27 229 -1
490 2 9 123 28 229 -1
491 2 9 122 28 228 -1
492 2 9 123 29 228 -1
493 2 9 123 30 229 -1
494 2 9 122 31 230 -1
495 2 9 122 32 231 -1
496 2 9 123 31 230 -1
497 4 9 124 30 231 -1
498 2 9 123 29 232 -1
499 4 9 124 29 231 -1
500 0 10 146 254 50 501
501 1 10 146 254 51 500
502 2 10 145 253 51 -1
503 3 10 146 253 50 -1
504 4 10 146 252 50 -1
505 5 10 146 251 49 -1
506 0 10 146 252 48 510
507 6 10 147 253 49 -1
508 3 10 146 254 49 -1
509 5 10 147 254 48 -1
510 1 10 147 253 47 506
511 7 10 146 254 47 -1
512 8 10 147 255 47 -1
513 6 10 148 255 46 -1
514 9 10 148 254 45 -1
515 8 10 148 255 45 -1
516 6 10 147 254 46 -1
517 6 10 146 255 45 -1
518 6 10 147 254 45 -1
519 7 10 147 253 45 -1
520 3 10 146 253 46 -1
521 5 10 145 252 45 -1
522 7 10 145 253 44 -1
523 5 10 144 254 43 -1
524 1 10 144 253 44 -1
525 3 10 145 252 44 -1
526 4 10 144 252 45 -1
527 3 10 144 251 44 -1
528 3 10 143 250 44 -1
529 5 10 142 249 45 -1
530 6 10 143 249 45 -1
531 4 10 142 248 45 -1
532 2 10 142 247 46 -1
533 2 10 141 248 47 -1
534 2 10 142 248 48 -1
535 2 10 142 247 47 -1
536 2 10 141 246 48 -1
537 4 10 141 246 47 -1
538 2 10 140 245 47 -1
539 2 10 139 246 47 -1
540 2 10 139 245 48 -1
541 2 10 139 245 49 -1
542 2 10 140 244 50 -1
543 2 10 140 245 50 -1
544 2 10 141 244 49 -1
545 2 10 140 243 49 -1
546 2 10 141 243 50 -1
547 4 10 141 242 50 -1
548 2 10 142 242 50 -1
549 4 10 142 242 49 -1
550 0 11 285 180 37 551
551 1 11 285 179 37 550
552 2 11 284 178 36 -1
553 3 11 283 178 37 -1
554 4 11 282 178 38 -1
555 5 11 281 177 38 -1
556 0 11 282 178 37 560
557 6 11 283 178 36 -1
558 3 11 283 178 35 -1
559 5 11 282 178 35 -1
560 1 11 282 178 36 556
561 7 11 282 177 35 -1
562 8 11 281 177 36 -1
563 6 11 282 176 35 -1
564 9 11 283 176 35 -1
565 8 11 284 177 35 -1
566 6 11 284 176 36 -1
567 6 11 283 176 36 -1
568 6 11 284 175 35 -1
569 7 11 283 174 34 -1
570 3 11 283 173 34 -1
571 5 11 283 172 34 -1
572 7 11 284 171 34 -1
573 5 11 284 171 33 -1
574 1 11 285 172 32 -1
575 3 11 286 171 32 -1
576 4 11 285 170 32 -1
577 3 11 285 171 31 -1
578 3 11 286 172 30 -1
579 5 11 285 173 30 -1
580 6 11 286 174 31 -1
581 4 11 286 174 30 -1
582 2 11 287 175 31 -1
583 2 11 287 176 30 -1
584 2 11 286 176 31 -1
585 2 11 285 176 32 -1
586 2 11 285 176 33 -1
587 4 11 284 175 33 -1
588 2 11 284 174 34 -1
589 2 11 283 175 35 -1
590 2 11 284 175 36 -1
591 2 11 283 175 37 -1
592 2 11 284 174 36 -1
593 2 11 285 175 36 -1
594 2 11 284 175 37 -1
595 2 11 283 176 38 -1
596 2 11 283 175 38 -1
597 4 11 282 174 38 -1
598 2 11 282 175 38 -1
599 4 11 282 174 39 -1
600 0 12 451 463 133 601
601 1 12 450 462 133 600
602 2 12 451 463 134 -1
603 3 12 451 464 135 -1
604 4 12 450 465 134 -1
605 5 12 449 464 135 -1
606 0 12 449 463 135 -1
607 6 12 448 463 134 -1
608 3 12 449 462 134 -1
609 5 12 448 463 133 -1
610 1 12 447 463 133 -1
611 7 12 447 462 133 -1
612 8 12 447 462 132 -1
613 6 12 446 462 133 -1
614 9 12 446 461 132 -1
615 8 12 446 462 132 -1
616 6 12 445 462 131 -1
617 6 12 446 461 130 -1
618 6 12 446 462 129 -1
619 7 12 446 462 130 -1
620 3 12 446 463 130 -1
621 5 12 446 463 129 -1
622 7 12 445 464 128 -1
623 5 12 444 464 127 -1
624 1 12 444 464 128 -1
625 3 12 443 465 127 -1
626 4 12 442 465 127 -1
627 3 12 441 466 128 -1
628 3 12 440 465 127 -1
629 5 12 440 466 126 -1
630 6 12 439 465 126 -1
631 4 12 439 466 125 -1
632 2 12 438 467 124 -1
633 2 12 438 467 125 -1
634 2 12 438 466 124 -1
635 2 12 437 467 124 -1
636 2 12 436 466 123 -1
637 4 12 437 465 122 -1
638 2 12 437 464 122 -1
639 2 12 436 463 121 -1
640 2 12 435 462 122 -1
641 2 12 434 463 122 -1
642 2 12 434 463 121 -1
643 2 12 434 464 122 -1
644 2 12 435 464 123 -1
645 2 12 436 464 124 -1
646 2 12 436 465 124 -1
647 4 12 435 465 123 -1
648 2 12 436 466 122 -1
649 4 12 435 466 123 -1
650 0 13 109 413 16 651
651 1 13 108 414 16 650
652 2 13 108 413 15 -1
653 3 13 109 413 15 -1
654 4 13 109 414 14 -1
655 5 13 110 415 13 -1
656 0 13 110 414 13 660
657 6 13 109 414 12 -1
658 3 13 110 413 13 -1
659 5 13 110 414 14 -1
660 1 13 111 414 13 656
661 7 13 112 415 14 -1
662 8 13 112 415 15 -1
663 6 13 111 416 15 -1
664 9 13 111 417 14 -1
665 8 13 110 418 14 -1
666 6 13 111 419 13 -1
667 6 13 110 419 12 -1
668 6 13 111 419 12 -1
669 7 13 112 419 12 -1
670 3 13 111 418 12 -1
671 5 13 110 418 13 -1
672 7 13 109 417 12 -1
673 5 13 110 417 12 -1
674 1 13 109 417 11 -1
675 3 13 110 416 10 -1
676 4 13 111 417 9 -1
677 3 13 112 417 10 -1
678 3 13 111 416 11 -1
679 5 13 110 417 11 -1
680 6 13 110 418 10 -1
681 4 13 109 418 9 -1
682 2 13 110 417 8 -1
683 2 13 110 417 9 -1
684 2 13 111 416 8 -1
685 2 13 112 416 9 -1
686 2 13 112 415 9 -1
687 4 13 113 415 10 -1
688 2 13 114 414 9 -1
689 2 13 113 413 10 -1
690 2 13 114 412 10 -1
691 2 13 115 411 11 -1
692 2 13 116 412 10 -1
693 2 13 116 412 11 -1
694 2 13 115 412 10 -1
695 2 13 114 411 11 -1
696 2 13 114 410 12 -1
697 4 13 115 411 13 -1
698 2 13 114 412 14 -1
699 4 13 113 412 13 -1
700 0 14 247 402 293 701
701 1 14 248 403 294 700
702 2 14 248 402 294 -1
703 3 14 249 401 295 -1
704 4 14 249 401 296 -1
705 5 14 250 400 296 -1
706 0 14 251 399 296 710
707 6 14 251 400 297 -1
708 3 14 251 401 296 -1
709 5 14 250 401 297 -1
710 1 14 250 400 297 706
711 7 14 251 401 298 -1
712 8 14 250 402 297 -1
713 6 14 251 403 298 -1
714 9 14 251 404 298 -1
715 8 14 250 404 299 -1
716 6 14 251 404 300 -1
717 6 14 250 404 301 -1
718 6 14 249 405 300 -1
719 7 14 248 404 301 -1
720 3 14 247 403 301 -1
721 5 14 246 403 302 -1
722 7 14 245 403 302 -1
723 5 14 245 403 303 -1
724 1 14 244 404 304 -1
725 3 14 244 405 304 -1
726 4 14 243 406 303 -1
727 3 14 242 407 304 -1
728 3 14 242 408 304 -1
729 5 14 241 409 304 -1
730 6 14 240 408 305 -1
731 4 14 240 407 306 -1
732 2 14 241 407 307 -1
733 2 14 242 407 306 -1
734 2 14 242 406 306 -1
735 2 14 241 406 306 -1
736 2 14 241 405 307 -1
737 4 14 240 406 307 -1
738 2 14 239 406 308 -1
739 2 14 238 405 307 -1
740 2 14 238 406 306 -1
741 2 14 238 407 305 -1
742 2 14 238 408 305 -1
743 2 14 239 408 305 -1
744 2 14 238 409 304 -1
745 2 14 239 410 303 -1
746 2 14 238 411 302 -1
747 4 14 237 411 303 -1
748 2 14 237 412 304 -1
749 4 14 236 413 304 -1
750 0 15 486 128 399 760
751 1 15 487 128 398 -1
752 2 15 488 128 399 -1
753 3 15 487 129 400 -1
754 4 15 488 129 401 -1
755 5 15 488 128 402 -1
756 0 15 488 127 401 -1
757 6 15 487 127 402 -1
758 3 15 486 127 402 -1
759 5 15 487 127 401 -1
760 1 15 487 127 400 750
761 7 15 488 126 401 -1
762 8 15 488 126 400 -1
763 6 15 487 125 399 -1
764 9 15 486 126 398 -1
765 8 15 487 126 399 -1
766 6 15 486 127 400 -1
767 6 15 487 126 400 -1
768 6 15 486 127 399 -1
769 7 15 485 128 398 -1
770 3 15 485 127 397 -1
771 5 15 486 127 396 -1
772 7 15 485 127 396 -1
773 5 15 484 127 395 -1
774 1 15 484 128 396 -1
775 3 15 483 129 395 -1
776 4 15 483 130 394 -1
777 3 15 483 131 393 -1
778 3 15 484 131 394 -1
779 5 15 483 130 395 -1
780 6 15 482 129 394 -1
781 4 15 482 128 395 -1
782 2 15 481 127 396 -1
783 2 15 480 128 397 -1
784 2 15 480 127 396 -1
785 2 15 480 128 396 -1
786 2 15 481 127 395 -1
787 4 15 481 128 394 -1
788 2 15 481 128 393 -1
789 2 15 482 128 393 -1
790 2 15 481 127 392 -1
791 2 15 481 126 393 -1
792 2 15 481 125 392 -1
793 2 15 480 126 392 -1
794 2 15 479 127 391 -1
795 2 15 478 127 390 -1
796 2 15 478 126 389 -1
797 4 15 477 127 390 -1
798 2 15 476 128 391 -1
799 4 15 475 128 390 -1
800 0 16 87 143 113 801
801 1 16 87 144 112 800
802 2 16 86 144 112 -1
803 3 16 85 144 111 -1
804 4 16 84 145 110 -1
805 5 16 83 145 110 -1
806 0 16 82 146 111 810
807 6 16 81 145 110 -1
808 3 16 82 145 111 -1
809 5 16 81 146 112 -1
810 1 16 82 147 112 806
811 7 16 83 148 111 -1
812 8 16 83 149 111 -1
813 6 16 83 148 110 -1
814 9 16 82 149 109 -1
815 8 16 83 150 110 -1
816 6 16 83 149 109 -1
817 6 16 84 150 108 -1
818 6 16 85 149 107 -1
819 7 16 84 149 106 -1
820 3 16 85 149 106 -1
821 5 16 86 149 106 -1
822 7 16 86 149 105 -1
823 5 16 86 148 105 -1
824 1 16 85 147 105 -1
825 3 16 84 148 104 -1
826 4 16 83 147 105 -1
827 3 16 84 147 106 -1
828 3 16 83 146 106 -1
829 5 16 82 147 107 -1
830 6 16 81 148 107 -1
831 4 16 82 147 106 -1
832 2 16 81 148 105 -1
833 2 16 81 147 105 -1
834 2 16 81 147 104 -1
835 2 16 80 147 103 -1
836 2 16 81 148 103 -1
837 4 16 80 148 104 -1
838 2 16 79 148 103 -1
839 2 16 78 147 103 -1
840 2 16 78 146 102 -1
841 2 16 77 147 101 -1
842 2 16 76 148 100 -1
843 2 16 77 149 99 -1
844 2 16 77 149 98 -1
845 2 16 78 149 98 -1
846 2 16 79 150 98 -1
847 4 16 78 151 99 -1
848 2 16 79 150 100 -1
849 4 16 80 150 100 -1
850 0 17 156 237 302 851
851 1 17 155 237 302 850
852 2 17 156 236 301 -1
853 3 17 156 235 300 -1
854 4 17 156 236 299 -1
855 5 17 155 235 300 -1
856 0 17 154 235 299 -1
857 6 17 153 234 298 -1
858 3 17 152 235 297 -1
859 5 17 153 236 296 -1
860 1 17 152 236 295 -1
861 7 17 153 237 295 -1
862 8 17 154 237 296 -1
863 6 17 155 236 295 -1
864 9 17 156 235 294 -1
865 8 17 157 236 294 -1
866 6 17 157 237 293 -1
867 6 17 158 237 292 -1
868 6 17 157 236 292 -1
869 7 17 156 237 291 -1
870 3 17 157 236 290 -1
871 5 17 156 236 291 -1
872 7 17 155 237 292 -1
873 5 17 154 236 292 -1
874 1 17 154 237 291 -1
875 3 17 153 238 290 -1
876 4 17 154 238 289 -1
877 3 17 155 238 290 -1
878 3 17 154 239 291 -1
879 5 17 153 238 292 -1
880 6 17 152 238 293 -1
881 4 17 151 239 292 -1
882 2 17 151 238 293 -1
883 2 17 152 239 294 -1
884 2 17 151 240 295 -1
885 2 17 152 239 296 -1
886 2 17 152 239 297 -1
887 4 17 153 240 297 -1
888 2 17 154 241 297 -1
889 2 17 154 240 297 -1
890 2 17 154 239 298 -1
891 2 17 153 240 299 -1
892 2 17 154 240 299 -1
893 2 17 153 239 299 -1
894 2 17 152 239 300 -1
895 2 17 152 240 300 -1
896 2 17 151 239 301 -1
897 4 17 150 239 300 -1
898 2 17 149 240 300 -1
899 4 17 148 241 300 -1
900 0 18 291 53 61 901
901 1 18 291 54 60 900
902 2 18 290 54 61 -1
903 3 18 290 53 60 -1
904 4 18 291 52 61 -1
905 5 18 290 51 62 -1
906 0 18 291 52 63 -1
907 6 18 290 51 63 -1
908 3 18 290 50 64 -1
909 5 18 289 51 65 -1
910 1 18 289 52 66 -1
911 7 18 290 53 66 -1
912 8 18 289 53 67 -1
913 6 18 290 54 68 -1
914 9 18 289 54 69 -1
915 8 18 289 53 68 -1
916 6 18 289 53 69 -1
917 6 18 288 52 70 -1
918 6 18 288 51 70 -1
919 7 18 288 50 71 -1
920 3 18 289 51 70 -1
921 5 18 289 51 69 -1
922 7 18 289 52 69 -1
923 5 18 288 52 68 -1
924 1 18 287 52 69 -1
925 3 18 286 53 69 -1
926 4 18 286 52 69 -1
927 3 18 286 51 68 -1
928 3 18 285 52 67 -1
929 5 18 285 52 68 -1
930 6 18 286 51 67 -1
931 4 18 285 51 66 -1
932 2 18 284 50 66 -1
933 2 18 285 51 67 -1
934 2 18 285 52 66 -1
935 2 18 286 51 65 -1
936 2 18 286 50 65 -1
937 4 18 285 50 65 -1
938 2 18 286 51 64 -1
939 2 18 285 52 63 -1
940 2 18 286 51 62 -1
941 2 18 287 52 61 -1
942 2 18 288 52 60 -1
943 2 18 289 53 60 -1
944 2 18 289 54 59 -1
945 2 18 289 55 59 -1
946 2 18 288 55 60 -1
947 4 18 288 54 59 -1
948 2 18 288 53 60 -1
949 4 18 289 53 59 -1
950 0 19 487 82 229 951
951 1 19 486 83 229 950
952 2 19 487 82 228 -1
953 3 19 488 83 227 -1
954 4 19 488 82 227 -1
955 5 19 489 83 227 -1
956 0 19 488 83 226 960
957 6 19 489 82 225 -1
958 3 19 488 83 225 -1
959 5 19 488 84 226 -1
960 1 19 489 84 226 956
961 7 19 490 84 225 -1
962 8 19 489 85 226 -1
963 6 19 490 84 226 -1
964 9 19 491 83 227 -1
965 8 19 491 83 226 -1
966 6 19 490 84 227 -1
967 6 19 491 83 228 -1
968 6 19 492 84 227 -1
969 7 19 491 85 227 -1
970 3 19 492 85 226 -1
971 5 19 493 86 226 -1
972 7 19 494 86 225 -1
973 5 19 495 85 225 -1
974 1 19 494 85 226 -1
975 3 19 494 84 226 -1
976 4 19 495 84 226 -1
977 3 19 494 83 226 -1
978 3 19 495 82 226 -1
979 5 19 494 82 225 -1
980 6 19 493 83 224 -1
981 4 19 494 84 223 -1
982 2 19 495 85 223 -1
983 2 19 494 85 223 -1
984 2 19 493 85 222 -1
985 2 19 493 84 221 -1
986 2 19 493 85 220 -1
987 4 19 493 86 221 -1
988 2 19 494 87 221 -1
989 2 19 495 88 220 -1
990 2 19 494 87 219 -1
991 2 19 493 86 220 -1
992 2 19 492 87 220 -1
993 2 19 492 86 220 -1
994 2 19 491 85 220 -1
995 2 19 491 85 221 -1
996 2 19 490 84 221 -1
997 4 19 490 83 220 -1
998 2 19 490 84 220 -1
999 4 19 491 83 220 -1
1000 0 20 58 63 232 1001
1001 1 20 57 62 231 1000
1002 2 20 57 62 230 -1
1003 3 20 56 62 231 -1
1004 4 20 55 61 230 -1
1005 5 20 54 60 229 -1
1006 0 20 55 59 230 1010
1007 6 20 56 58 231 -1
1008 3 20 57 59 231 -1
1009 5 20 56 59 230 -1
1010 1 20 56 58 230 1006
1011 7 20 55 59 231 -1
1012 8 20 55 58 232 -1
1013 6 20 55 59 233 -1
1014 9 20 55 58 233 -1
1015 8 20 56 59 234 -1
1016 6 20 56 60 234 -1
1017 6 20 57 59 235 -1
1018 6 20 57 58 236 -1
1019 7 20 56 57 237 -1
1020 3 20 55 58 237 -1
1021 5 20 56 58 237 -1
1022 7 20 57 59 238 -1
1023 5 20 57 60 237 -1
1024 1 20 58 60 238 -1
1025 3 20 59 61 237 -1
1026 4 20 60 61 238 -1
1027 3 20 59 61 238 -1
1028 3 20 59 62 237 -1
1029 5 20 58 63 236 -1
1030 6 20 59 64 235 -1
1031 4 20 59 65 235 -1
1032 2 20 60 65 235 -1
1033 2 20 59 65 234 -1
1034 2 20 58 64 234 -1
1035 2 20 57 63 234 -1
1036 2 20 56 63 234 -1
1037 4 20 56 62 234 -1
1038 2 20 57 62 235 -1
1039 2 20 57 63 235 -1
1040 2 20 56 63 236 -1
1041 2 20 57 62 236 -1
1042 2 20 58 63 235 -1
1043 2 20 58 62 234 -1
1044 2 20 57 62 233 -1
1045 2 20 56 62 233 -1
1046 2 20 56 63 232 -1
1047 4 20 57 63 233 -1
1048 2 20 58 64 233 -1
1049 4 20 59 64 232 -1
1050 0 21 157 258 214 1051
1051 1 21 156 257 215 1050
1052 2 21 156 256 215 -1
1053 3 21 155 256 216 -1
1054 4 21 155 255 215 -1
1055 5 21 155 254 214 -1
1056 0 21 154 254 214 1060
1057 6 21 153 254 213 -1
1058 3 21 154 255 213 -1
1059 5 21 154 254 213 -1
1060 1 21 155 253 213 1056
1061 7 21 155 252 213 -1
1062 8 21 155 251 213 -1
1063 6 21 155 251 212 -1
1064 9 21 154 250 211 -1
1065 8 21 155 250 210 -1
1066 6 21 154 251 211 -1
1067 6 21 153 251 210 -1
1068 6 21 154 250 209 -1
1069 7 21 155 249 209 -1
1070 3 21 154 249 209 -1
1071 5 21 155 250 209 -1
1072 7 21 154 249 210 -1
1073 5 21 153 249 211 -1
1074 1 21 153 250 212 -1
1075 3 21 154 251 212 -1
1076 4 21 154 252 212 -1
1077 3 21 153 251 213 -1
1078 3 21 153 252 212 -1
1079 5 21 154 252 213 -1
1080 6 21 154 252 214 -1
1081 4 21 153 253 215 -1
1082 2 21 153 253 216 -1
1083 2 21 152 252 217 -1
1084 2 21 151 252 217 -1
1085 2 21 151 251 217 -1
1086 2 21 152 251 216 -1
1087 4 21 153 252 215 -1
1088 2 21 154 253 216 -1
1089 2 21 154 253 217 -1
1090 2 21 155 254 218 -1
1091 2 21 156 254 218 -1
1092 2 21 155 255 219 -1
1093 2 21 155 256 218 -1
1094 2 21 154 256 217 -1
1095 2 21 153 255 216 -1
1096 2 21 154 255 216 -1
1097 4 21 153 256 216 -1
1098 2 21 153 255 217 -1
1099 4 21 153 254 216 -1
1100 0 22 225 271 300 1101
1101 1 22 224 271 301 1100
1102 2 22 225 272 300 -1
1103 3 22 226 273 299 -1
1104 4 22 227 272 299 -1
1105 5 22 227 271 300 -1
1106 0 22 228 271 300 1110
1107 6 22 228 272 299 -1
1108 3 22 229 273 300 -1
1109 5 22 230 273 300 -1
1110 1 22 229 272 301 1106
1111 7 22 228 271 302 -1
1112 8 22 229 271 301 -1
1113 6 22 230 272 300 -1
1114 9 22 229 271 299 -1
1115 8 22 230 271 299 -1
1116 6 22 229 271 300 -1
1117 6 22 228 270 299 -1
1118 6 22 228 269 300 -1
1119 7 22 229 269 301 -1
1120 3 22 230 269 302 -1
1121 5 22 230 268 302 -1
1122 7 22 229 267 301 -1
1123 5 22 230 267 302 -1
1124 1 22 229 266 301 -1
1125 3 22 230 265 300 -1
1126 4 22 229 266 300 -1
1127 3 22 230 267 301 -1
1128 3 22 231 267 301 -1
1129 5 22 231 266 301 -1
1130 6 22 231 266 302 -1
1131 4 22 231 265 302 -1
1132 2 22 231 264 301 -1
1133 2 22 231 263 301 -1
1134 2 22 231 263 300 -1
1135 2 22 232 264 299 -1
1136 2 22 233 265 298 -1
1137 4 22 233 265 297 -1
1138 2 22 234 266 296 -1
1139 2 22 235 266 295 -1
1140 2 22 236 267 296 -1
1141 2 22 236 266 297 -1
1142 2 22 236 266 296 -1
1143 2 22 235 266 296 -1
1144 2 22 235 265 297 -1
1145 2 22 236 265 296 -1
1146 2 22 237 264 295 -1
1147 4 22 236 264 295 -1
1148 2 22 235 264 295 -1
1149 4 22 236 263 294 -1
1150 0 23 236 205 308 -1
1151 1 23 235 204 308 -1
1152 2 23 235 204 309 -1
1153 3 23 236 203 308 -1
1154 4 23 237 204 307 -1
1155 5 23 237 205 307 -1
1156 0 23 238 205 306 -1
1157 6 23 237 206 307 -1
1158 3 23 237 207 308 -1
1159 5 23 238 206 307 -1
1160 1 23 238 207 307 -1
1161 7 23 239 208 306 -1
1162 8 23 238 209 305 -1
1163 6 23 237 209 305 -1
1164 9 23 237 209 304 -1
1165 8 23 237 210 303 -1
1166 6 23 238 211 303 -1
1167 6 23 238 212 303 -1
1168 6 23 239 213 304 -1
1169 7 23 240 213 305 -1
1170 3 23 239 213 305 -1
1171 5 23 238 214 306 -1
1172 7 23 238 215 306 -1
1173 5 23 239 216 307 -1
1174 1 23 238 217 306 -1
1175 3 23 239 218 306 -1
1176 4 23 238 217 307 -1
1177 3 23 238 218 308 -1
1178 3 23 239 218 309 -1
1179 5 23 240 218 308 -1
1180 6 23 239 219 308 -1
1181 4 23 239 220 308 -1
1182 2 23 240 220 308 -1
1183 2 23 239 219 307 -1
1184 2 23 238 220 306 -1
1185 2 23 237 219 305 -1
1186 2 23 238 220 304 -1
1187 4 23 239 221 303 -1
1188 2 23 238 222 304 -1
1189 2 23 238 222 303 -1
1190 2 23 239 222 304 -1
1191 2 23 239 222 303 -1
1192 2 23 238 221 304 -1
1193 2 23 237 221 303 -1
1194 2 23 236 222 304 -1
1195 2 23 237 223 305 -1
1196 2 23 238 223 304 -1
1197 4 23 239 224 305 -1
1198 2 23 238 224 306 -1
1199 4 23 239 223 307 -1
1200 0 24 306 392 45 1201
1201 1 24 305 392 44 1200
1202 2 24 304 393 44 -1
1203 3 24 304 394 45 -1
1204 4 24 303 395 45 -1
1205 5 24 302 396 44 -1
1206 0 24 302 395 43 1210
1207 6 24 303 394 42 -1
1208 3 24 304 393 42 -1
1209 5 24 303 393 43 -1
1210 1 24 303 394 43 1206
1211 7 24 303 395 42 -1
1212 8 24 303 396 42 -1
1213 6 24 304 395 41 -1
1214 9 24 305 394 41 -1
1215 8 24 304 394 42 -1
1216 6 24 303 394 41 -1
1217 6 24 304 393 41 -1
1218 6 24 304 392 42 -1
1219 7 24 305 393 41 -1
1220 3 24 305 394 40 -1
1221 5 24 305 394 39 -1
1222 7 24 304 393 40 -1
1223 5 24 303 393 41 -1
1224 1 24 302 393 41 -1
1225 3 24 303 393 42 -1
1226 4 24 304 393 43 -1
1227 3 24 305 394 43 -1
1228 3 24 306 395 43 -1
1229 5 24 305 395 42 -1
1230 6 24 306 396 41 -1
1231 4 24 307 396 40 -1
1232 2 24 306 395 41 -1
1233 2 24 307 394 42 -1
1234 2 24 306 394 43 -1
1235 2 24 306 393 42 -1
1236 2 24 307 392 41 -1
1237 4 24 306 392 40 -1
1238 2 24 307 391 40 -1
1239 2 24 308 391 39 -1
1240 2 24 309 392 39 -1
1241 2 24 310 391 40 -1
1242 2 24 310 392 41 -1
1243 2 24 309 393 42 -1
1244 2 24 309 392 42 -1
1245 2 24 308 392 43 -1
1246 2 24 308 393 42 -1
1247 4 24 307 394 43 -1
1248 2 24 307 393 44 -1
1249 4 24 306 393 44 -1
1250 0 25 78 364 354 1251
1251 1 25 78 364 353 1250
1252 2 25 79 363 354 -1
1253 3 25 80 364 355 -1
1254 4 25 80 364 356 -1
1255 5 25 80 365 357 -1
1256 0 25 80 366 357 1260
1257 6 25 79 367 356 -1
1258 3 25 78 366 355 -1
1259 5 25 79 367 355 -1
1260 1 25 79 366 356 1256
1261 7 25 78 366 357 -1
1262 8 25 79 366 357 -1
1263 6 25 79 367 357 -1
1264 9 25 80 366 356 -1
1265 8 25 81 366 357 -1
1266 6 25 81 365 358 -1
1267 6 25 81 366 358 -1
1268 6 25 82 366 358 -1
1269 7 25 81 365 359 -1
1270 3 25 80 364 358 -1
1271 5 25 81 363 358 -1
1272 7 25 81 363 359 -1
1273 5 25 80 362 359 -1
1274 1 25 79 362 360 -1
1275 3 25 80 361 359 -1
1276 4 25 81 362 360 -1
1277 3 25 80 362 360 -1
1278 3 25 80 362 361 -1
1279 5 25 81 361 361 -1
1280 6 25 82 360 362 -1
1281 4 25 81 360 362 -1
1282 2 25 81 360 361 -1
1283 2 25 80 361 362 -1
1284 2 25 79 360 361 -1
1285 2 25 78 360 360 -1
1286 2 25 77 359 361 -1
1287 4 25 76 360 360 -1
1288 2 25 77 359 360 -1
1289 2 25 76 359 361 -1
1290 2 25 75 360 360 -1
1291 2 25 75 361 361 -1
1292 2 25 76 360 362 -1
1293 2 25 77 360 361 -1
1294 2 25 76 361 362 -1
1295 2 25 77 362 363 -1
1296 2 25 78 362 362 -1
1297 4 25 77 361 363 -1
1298 2 25 78 362 363 -1
1299 4 25 78 362 364 -1
1300 0 26 290 479 176 1301
1301 1 26 291 478 177 1300
1302 2 26 291 477 178 -1
1303 3 26 292 477 178 -1