ITEM: TIMESTEP
0
ITEM: NUMBER OF ATOMS
10000
ITEM: BOX BOUNDS pp pp pp
0 500
0 500
0 500
ITEM: ATOMS id type mol x y z bP
0 0 0 386 263 221 1
1 1 0 385 262 222 0
2 2 0 385 263 222 -1
3 3 0 384 262 223 -1
4 4 0 383 263 222 -1
5 5 0 382 264 221 -1
6 0 0 381 265 220 -1
7 6 0 380 266 219 -1
8 3 0 379 265 219 -1
9 5 0 379 264 218 -1
10 1 0 379 265 218 -1
11 7 0 378 266 219 -1
12 8 0 379 267 218 -1
13 6 0 380 268 219 -1
14 9 0 379 268 220 -1
15 8 0 379 269 220 -1
16 6 0 379 269 219 -1
17 6 0 379 268 219 -1
18 6 0 380 267 220 -1
19 7 0 381 267 220 -1
20 3 0 381 266 221 -1
21 5 0 382 265 220 -1
22 7 0 382 265 219 -1
23 5 0 382 266 218 -1
24 1 0 383 265 218 -1
25 3 0 383 265 219 -1
26 4 0 382 266 219 -1
27 3 0 381 265 219 -1
28 3 0 381 266 218 -1
29 5 0 380 265 217 -1
30 6 0 381 264 218 -1
31 4 0 380 263 219 -1
32 2 0 380 263 218 -1
33 2 0 381 263 218 -1
34 2 0 382 263 219 -1
35 2 0 382 262 218 -1
36 2 0 382 261 218 -1
37 4 0 381 261 217 -1
38 2 0 380 262 216 -1
39 2 0 380 262 215 -1
40 2 0 379 262 215 -1
41 2 0 378 261 214 -1
42 2 0 378 260 213 -1
43 2 0 377 259 212 -1
44 2 0 376 258 212 -1
45 2 0 376 258 211 -1
46 2 0 375 257 210 -1
47 4 0 375 256 210 -1
48 2 0 374 256 211 -1
49 4 0 374 257 212 -1
50 0 1 412 482 268 51
51 1 1 413 481 267 50
52 2 1 413 480 266 -1
53 3 1 414 481 265 -1
54 4 1 413 482 265 -1
55 5 1 414 482 266 -1
56 0 1 415 483 267 60
57 6 1 414 484 267 -1
58 3 1 415 483 268 -1
59 5 1 414 483 269 -1
60 1 1 414 482 268 56
61 7 1 413 483 269 -1
62 8 1 413 482 269 -1
63 6 1 414 481 268 -1
64 9 1 414 482 269 -1
65 8 1 415 483 269 -1
66 6 1 416 484 270 -1
67 6 1 416 485 271 -1
68 6 1 416 485 270 -1
69 7 1 416 486 269 -1
70 3 1 415 487 269 -1
71 5 1 414 487 268 -1
72 7 1 414 488 269 -1
73 5 1 414 487 270 -1
74 1 1 415 486 269 -1
75 3 1 415 486 270 -1
76 4 1 415 485 271 -1
77 3 1 415 485 270 -1
78 3 1 414 484 270 -1
79 5 1 414 485 269 -1
80 6 1 413 486 269 -1
81 4 1 412 485 270 -1
82 2 1 412 484 271 -1
83 2 1 413 485 272 -1
84 2 1 414 485 272 -1
85 2 1 413 486 271 -1
86 2 1 413 486 270 -1
87 4 1 412 487 270 -1
88 2 1 412 486 270 -1
89 2 1 411 486 270 -1
90 2 1 412 486 271 -1
91 2 1 411 487 272 -1
92 2 1 412 488 272 -1
93 2 1 412 489 271 -1
94 2 1 411 490 271 -1
95 2 1 411 489 270 -1
96 2 1 412 489 269 -1
97 4 1 413 490 269 -1
98 2 1 412 489 268 -1
99 4 1 413 490 268 -1
100 0 2 51 305 355 101
101 1 2 50 305 354 100
102 2 2 49 305 355 -1
103 3 2 50 306 356 -1
104 4 2 50 307 356 -1
105 5 2 51 308 357 -1
106 0 2 52 307 358 -1
107 6 2 51 308 359 -1
108 3 2 51 307 359 -1
109 5 2 51 306 360 -1
110 1 2 51 306 361 -1
111 7 2 50 306 362 -1
112 8 2 51 307 363 -1
113 6 2 50 306 364 -1
114 9 2 49 305 363 -1
115 8 2 49 304 364 -1
116 6 2 49 303 363 -1
117 6 2 48 302 363 -1
118 6 2 47 302 362 -1
119 7 2 46 301 363 -1
120 3 2 46 302 364 -1
121 5 2 45 301 364 -1
122 7 2 46 301 365 -1
123 5 2 47 301 366 -1
124 1 2 47 300 367 -1
125 3 2 47 301 367 -1
126 4 2 48 302 367 -1
127 3 2 49 301 367 -1
128 3 2 48 302 366 -1
129 5 2 48 303 367 -1
130 6 2 48 304 366 -1
131 4 2 47 304 367 -1
132 2 2 47 304 366 -1
133 2 2 47 305 366 -1
134 2 2 47 304 365 -1
135 2 2 48 304 365 -1
136 2 2 49 305 365 -1
137 4 2 49 306 364 -1
138 2 2 50 306 365 -1
139 2 2 51 306 366 -1
140 2 2 52 305 367 -1
141 2 2 52 306 367 -1
142 2 2 53 307 366 -1
143 2 2 52 307 365 -1
144 2 2 52 307 364 -1
145 2 2 51 306 363 -1
146 2 2 51 306 364 -1
147 4 2 51 305 364 -1
148 2 2 51 305 363 -1
149 4 2 52 304 363 -1
150 0 3 50 424 473 151
151 1 3 51 424 474 150
152 2 3 50 423 473 -1
153 3 3 51 423 474 -1
154 4 3 50 424 475 -1
155 5 3 49 424 476 -1
156 0 3 50 424 476 -1
157 6 3 51 425 477 -1
158 3 3 52 425 478 -1
159 5 3 53 425 477 -1
160 1 3 53 424 477 -1
161 7 3 54 423 478 -1
162 8 3 55 423 478 -1
163 6 3 54 422 477 -1
164 9 3 55 422 477 -1
165 8 3 55 421 476 -1
166 6 3 55 420 476 -1
167 6 3 56 421 476 -1
168 6 3 57 421 477 -1
169 7 3 58 420 477 -1
170 3 3 59 421 478 -1
171 5 3 60 420 477 -1
172 7 3 61 419 476 -1
173 5 3 62 419 476 -1
174 1 3 61 418 475 -1
175 3 3 60 417 476 -1
176 4 3 61 416 476 -1
177 3 3 62 415 477 -1
178 3 3 63 415 476 -1
179 5 3 62 415 475 -1
180 6 3 61 415 474 -1
181 4 3 61 415 475 -1
182 2 3 62 416 474 -1
183 2 3 62 416 473 -1
184 2 3 63 417 473 -1
185 2 3 62 418 473 -1
186 2 3 62 419 472 -1
187 4 3 62 419 471 -1
188 2 3 62 420 470 -1
189 2 3 61 421 469 -1
190 2 3 60 420 468 -1
191 2 3 60 419 468 -1
192 2 3 59 420 468 -1
193 2 3 59 419 469 -1
194 2 3 59 420 470 -1
195 2 3 59 419 471 -1
196 2 3 60 420 470 -1
197 4 3 61 420 470 -1
198 2 3 62 421 471 -1
199 4 3 63 421 472 -1
200 0 4 15 300 99 201
201 1 4 14 299 98 200
202 2 4 13 300 99 -1
203 3 4 12 301 99 -1
204 4 4 12 301 98 -1
205 5 4 13 300 97 -1
206 0 4 14 299 96 210
207 6 4 13 299 97 -1
208 3 4 12 298 97 -1
209 5 4 13 298 98 -1
210 1 4 14 299 97 206
211 7 4 15 299 97 -1
212 8 4 14 298 98 -1
213 6 4 15 297 99 -1
214 9 4 14 298 99 -1
215 8 4 13 299 100 -1
216 6 4 13 300 100 -1
217 6 4 13 299 101 -1
218 6 4 14 298 101 -1
219 7 4 14 298 102 -1
220 3 4 15 298 102 -1
221 5 4 15 297 102 -1
222 7 4 15 296 102 -1
223 5 4 14 297 103 -1
224 1 4 15 298 103 -1
225 3 4 16 297 102 -1
226 4 4 17 298 103 -1
227 3 4 17 298 104 -1
228 3 4 16 297 105 -1
229 5 4 16 296 104 -1
230 6 4 17 296 105 -1
231 4 4 16 296 105 -1
232 2 4 17 297 106 -1
233 2 4 18 298 106 -1
234 2 4 18 299 106 -1
235 2 4 17 299 107 -1
236 2 4 18 298 108 -1
237 4 4 18 299 107 -1
238 2 4 19 300 106 -1
239 2 4 18 301 106 -1
240 2 4 18 302 107 -1
241 2 4 19 302 106 -1
242 2 4 19 302 107 -1
243 2 4 20 303 108 -1
244 2 4 21 303 109 -1
245 2 4 21 302 109 -1
246 2 4 20 302 109 -1
247 4 4 20 301 109 -1
248 2 4 19 302 110 -1
249 4 4 20 303 111 -1
250 0 5 293 44 90 251
251 1 5 293 43 90 250
252 2 5 292 43 89 -1
253 3 5 292 42 90 -1
254 4 5 291 41 91 -1
255 5 5 290 40 90 -1
256 0 5 290 39 90 260
257 6 5 290 38 91 -1
258 3 5 289 38 90 -1
259 5 5 290 39 91 -1
260 1 5 291 39 91 256
261 7 5 292 38 92 -1
262 8 5 292 39 91 -1
263 6 5 293 39 91 -1
264 9 5 292 39 92 -1
265 8 5 291 38 93 -1
266 6 5 291 38 94 -1
267 6 5 290 39 94 -1
268 6 5 289 39 93 -1
269 7 5 288 38 92 -1
270 3 5 287 39 93 -1
271 5 5 286 40 93 -1
272 7 5 285 40 94 -1
273 5 5 284 41 94 -1
274 1 5 283 42 95 -1
275 3 5 283 43 96 -1
276 4 5 284 42 97 -1
277 3 5 285 43 98 -1
278 3 5 286 43 99 -1
279 5 5 286 44 98 -1
280 6 5 285 45 99 -1
281 4 5 284 46 99 -1
282 2 5 284 47 100 -1
283 2 5 283 47 101 -1
284 2 5 284 48 102 -1
285 2 5 285 49 102 -1
286 2 5 286 49 102 -1
287 4 5 287 50 101 -1
288 2 5 288 49 101 -1
289 2 5 287 48 101 -1
290 2 5 287 48 102 -1
291 2 5 286 47 101 -1
292 2 5 285 46 100 -1
293 2 5 285 46 101 -1
294 2 5 284 45 102 -1
295 2 5 285 45 102 -1
296 2 5 286 44 102 -1
297 4 5 287 45 103 -1
298 2 5 286 44 104 -1
299 4 5 287 45 104 -1
300 0 6 470 303 197 -1
301 1 6 471 304 198 -1
302 2 6 471 304 199 -1
303 3 6 472 305 199 -1
304 4 6 471 306 198 -1
305 5 6 471 305 198 -1
306 0 6 470 306 199 310
307 6 6 469 307 200 -1
308 3 6 470 307 200 -1
309 5 6 469 306 199 -1
310 1 6 470 305 198 306
311 7 6 471 306 197 -1
312 8 6 470 307 198 -1
313 6 6 471 308 199 -1
314 9 6 472 307 199 -1
315 8 6 471 306 199 -1
316 6 6 471 307 198 -1
317 6 6 470 306 197 -1
318 6 6 471 307 197 -1
319 7 6 470 308 196 -1
320 3 6 469 309 195 -1
321 5 6 469 309 196 -1
322 7 6 468 309 195 -1
323 5 6 468 308 194 -1
324 1 6 468 307 193 -1
325 3 6 468 306 192 -1
326 4 6 468 306 191 -1
327 3 6 467 305 192 -1
328 3 6 467 304 191 -1
329 5 6 466 303 190 -1
330 6 6 466 302 190 -1
331 4 6 466 303 189 -1
332 2 6 467 302 188 -1
333 2 6 466 303 188 -1
334 2 6 466 302 187 -1
335 2 6 465 302 186 -1
336 2 6 465 303 186 -1
337 4 6 464 303 185 -1
338 2 6 463 303 185 -1
339 2 6 462 304 184 -1
340 2 6 463 305 184 -1
341 2 6 463 305 183 -1
342 2 6 462 304 183 -1
343 2 6 463 303 183 -1
344 2 6 464 303 184 -1
345 2 6 464 302 185 -1
346 2 6 464 301 184 -1
347 4 6 465 302 185 -1
348 2 6 464 302 186 -1
349 4 6 463 302 186 -1
350 0 7 406 48 10 351
351 1 7 407 49 11 350
352 2 7 407 48 10 -1
353 3 7 406 47 10 -1
354 4 7 406 46 11 -1
355 5 7 406 45 10 -1
356 0 7 405 45 9 -1
357 6 7 405 46 8 -1
358 3 7 406 46 7 -1
359 5 7 407 46 7 -1
360 1 7 407 47 7 -1
361 7 7 408 47 6 -1
362 8 7 408 46 6 -1
363 6 7 408 46 7 -1
364 9 7 409 46 6 -1
365 8 7 408 45 5 -1
366 6 7 408 45 6 -1
367 6 7 407 45 7 -1
368 6 7 408 44 8 -1
369 7 7 408 43 8 -1
370 3 7 407 42 7 -1
371 5 7 408 42 7 -1
372 7 7 409 41 8 -1
373 5 7 410 41 9 -1
374 1 7 410 42 10 -1
375 3 7 411 42 9 -1
376 4 7 410 42 8 -1
377 3 7 409 41 7 -1
378 3 7 410 40 8 -1
379 5 7 411 41 7 -1
380 6 7 410 40 7 -1
381 4 7 409 39 8 -1
382 2 7 408 38 9 -1
383 2 7 408 39 10 -1
384 2 7 407 40 11 -1
385 2 7 408 39 12 -1
386 2 7 409 39 11 -1
387 4 7 409 40 12 -1
388 2 7 410 41 11 -1
389 2 7 409 42 11 -1
390 2 7 409 43 11 -1
391 2 7 409 44 12 -1
392 2 7 408 43 12 -1
393 2 7 408 44 13 -1
394 2 7 407 44 14 -1
395 2 7 408 43 14 -1
396 2 7 408 43 13 -1
397 4 7 407 42 13 -1
398 2 7 406 42 12 -1
399 4 7 405 42 11 -1
400 0 8 42 7 193 401
401 1 8 41 6 193 400
402 2 8 41 7 192 -1
403 3 8 42 8 192 -1
404 4 8 41 9 192 -1
405 5 8 40 8 192 -1
406 0 8 39 9 193 410
407 6 8 40 8 193 -1
408 3 8 41 9 194 -1
409 5 8 41 8 193 -1
410 1 8 40 8 194 406
411 7 8 40 9 195 -1
412 8 8 40 10 196 -1
413 6 8 39 11 196 -1
414 9 8 38 11 196 -1
415 8 8 39 12 196 -1
416 6 8 39 12 197 -1
417 6 8 40 13 197 -1
418 6 8 40 13 198 -1
419 7 8 41 14 198 -1
420 3 8 41 14 197 -1
421 5 8 40 14 197 -1
422 7 8 39 14 197 -1
423 5 8 40 15 197 -1
424 1 8 39 14 198 -1
425 3 8 38 15 199 -1
426 4 8 38 16 198 -1
427 3 8 38 17 197 -1
428 3 8 38 18 198 -1
429 5 8 39 19 199 -1
430 6 8 40 19 199 -1
431 4 8 39 19 200 -1
432 2 8 38 18 200 -1
433 2 8 37 17 200 -1
434 2 8 37 16 199 -1
435 2 8 36 17 198 -1
436 2 8 36 17 197 -1
437 4 8 35 16 196 -1
438 2 8 35 17 197 -1
439 2 8 34 18 198 -1
440 2 8 35 18 199 -1
441 2 8 34 18 199 -1
442 2 8 33 19 199 -1
443 2 8 34 19 200 -1
444 2 8 35 20 200 -1
445 2 8 36 20 199 -1
446 2 8 36 20 200 -1
447 4 8 35 20 199 -1
448 2 8 34 21 198 -1
449 4 8 35 21 199 -1
450 0 9 28 481 171 460
451 1 9 29 480 171 456
452 2 9 29 480 170 -1
453 3 9 29 480 169 -1
454 4 9 30 479 169 -1
455 5 9 30 480 170 -1
456 0 9 29 481 171 451
457 6 9 30 482 171 -1
458 3 9 29 481 172 -1
459 5 9 28 481 172 -1
460 1 9 27 480 172 450
461 7 9 28 481 173 -1
462 8 9 29 482 174 -1
463 6 9 29 483 174 -1
464 9 9 29 484 174 -1
465 8 9 30 485 173 -1
466 6 9 31 484 173 -1
467 6 9 32 483 174 -1
468 6 9 33 484 173 -1
469 7 9 34 484 174 -1
470 3 9 35 483 175 -1
471 5 9 35 482 175 -1
472 7 9 36 482 174 -1
473 5 9 37 481 174 -1
474 1 9 37 480 173 -1
475 3 9 38 481 174 -1
476 4 9 38 481 175 -1
477 3 9 38 480 175 -1
478 3 9 39 479 174 -1
479 5 9 40 480 175 -1
480 6 9 41 480 175 -1
481 4 9 40 481 175 -1
482 2 9 40 481 174 -1
483 2 9 40 480 174 -1
484 2 9 39 479 175 -1
485 2 9 39 478 176 -1
486 2 9 39 478 175 -1
487 4 9 40 477 174 -1
488 2 9 40 476 174 -1
489 2 9 39 477 174 -1
490 2 9 40 476 175 -1
491 2 9 39 475 176 -1
492 2 9 40 476 177 -1
493 2 9 39 476 178 -1
494 2 9 38 475 177 -1
495 2 9 37 474 177 -1
496 2 9 36 473 177 -1
497 4 9 36 472 176 -1
498 2 9 37 472 176 -1
499 4 9 36 471 177 -1
500 0 10 257 308 330 501
501 1 10 256 308 329 500
502 2 10 256 309 330 -1
503 3 10 255 309 329 -1
504 4 10 256 309 328 -1
505 5 10 255 308 328 -1
506 0 10 256 308 328 510
507 6 10 257 309 327 -1
508 3 10 257 308 328 -1
509 5 10 256 307 327 -1
510 1 10 257 307 327 506
511 7 10 258 307 328 -1
512 8 10 258 306 329 -1
513 6 10 257 305 328 -1
514 9 10 258 306 328 -1
515 8 10 257 306 329 -1
516 6 10 256 305 329 -1
517 6 10 257 306 328 -1
518 6 10 257 305 327 -1
519 7 10 256 306 328 -1
520 3 10 256 305 327 -1
521 5 10 255 304 326 -1
522 7 10 254 305 325 -1
523 5 10 253 306 324 -1
524 1 10 254 305 323 -1
525 3 10 253 304 323 -1
526 4 10 252 304 323 -1
527 3 10 251 305 324 -1
528 3 10 251 305 325 -1
529 5 10 250 304 325 -1
530 6 10 251 303 324 -1
531 4 10 250 303 323 -1
532 2 10 249 303 322 -1
533 2 10 248 302 322 -1
534 2 10 247 303 323 -1
535 2 10 247 303 322 -1
536 2 10 246 303 323 -1
537 4 10 247 303 324 -1
538 2 10 246 302 325 -1
539 2 10 246 303 326 -1
540 2 10 246 303 327 -1
541 2 10 247 303 327 -1
542 2 10 247 303 326 -1
543 2 10 247 303 325 -1
544 2 10 247 302 324 -1
545 2 10 248 301 324 -1
546 2 10 247 302 323 -1
547 4 10 246 302 324 -1
548 2 10 245 302 325 -1
549 4 10 244 301 324 -1
550 0 11 148 67 454 551
551 1 11 147 67 454 550
552 2 11 146 68 455 -1
553 3 11 147 69 455 -1
554 4 11 146 70 454 -1
555 5 11 145 69 454 -1
556 0 11 144 70 453 560
557 6 11 143 70 453 -1
558 3 11 144 71 453 -1
559 5 11 144 70 452 -1
560 1 11 145 70 453 556
561 7 11 146 71 454 -1
562 8 11 145 72 455 -1
563 6 11 146 72 454 -1
564 9 11 146 72 453 -1
565 8 11 147 73 452 -1
566 6 11 148 72 451 -1
567 6 11 148 72 452 -1
568 6 11 148 71 451 -1
569 7 11 149 70 450 -1
570 3 11 148 70 451 -1
571 5 11 147 70 450 -1
572 7 11 148 71 449 -1
573 5 11 148 71 448 -1
574 1 11 147 70 449 -1
575 3 11 146 70 448 -1
576 4 11 147 69 448 -1
577 3 11 147 68 449 -1
578 3 11 147 69 450 -1
579 5 11 148 70 449 -1
580 6 11 147 71 450 -1
581 4 11 146 72 450 -1
582 2 11 146 71 451 -1
583 2 11 145 70 451 -1
584 2 11 144 69 451 -1
585 2 11 145 68 450 -1
586 2 11 146 67 451 -1
587 4 11 145 66 452 -1
588 2 11 146 66 451 -1
589 2 11 145 66 451 -1
590 2 11 146 67 452 -1
591 2 11 147 66 452 -1
592 2 11 148 65 452 -1
593 2 11 147 66 453 -1
594 2 11 146 65 454 -1
595 2 11 147 64 454 -1
596 2 11 147 63 454 -1
597 4 11 146 64 455 -1
598 2 11 147 63 456 -1
599 4 11 148 63 456 -1
600 0 12 323 414 190 601
601 1 12 322 415 189 600
602 2 12 322 415 190 -1
603 3 12 321 416 189 -1
604 4 12 320 416 189 -1
605 5 12 319 417 189 -1
606 0 12 319 416 188 -1
607 6 12 318 417 187 -1
608 3 12 317 418 186 -1
609 5 12 317 418 185 -1
610 1 12 317 419 184 -1
611 7 12 316 419 184 -1
612 8 12 317 420 184 -1
613 6 12 317 419 183 -1
614 9 12 316 419 183 -1
615 8 12 315 419 182 -1
616 6 12 316 418 182 -1
617 6 12 317 417 182 -1
618 6 12 317 418 181 -1
619 7 12 318 418 182 -1
620 3 12 319 419 181 -1
621 5 12 320 418 182 -1
622 7 12 321 419 183 -1
623 5 12 320 418 183 -1
624 1 12 320 419 184 -1
625 3 12 319 418 184 -1
626 4 12 319 417 184 -1
627 3 12 318 418 185 -1
628 3 12 318 419 185 -1
629 5 12 319 420 186 -1
630 6 12 319 421 187 -1
631 4 12 320 422 188 -1
632 2 12 319 422 189 -1
633 2 12 318 422 188 -1
634 2 12 318 423 189 -1
635 2 12 317 422 190 -1
636 2 12 317 422 189 -1
637 4 12 316 422 189 -1
638 2 12 315 421 190 -1
639 2 12 314 422 191 -1
640 2 12 313 422 190 -1
641 2 12 314 423 190 -1
642 2 12 313 422 191 -1
643 2 12 314 421 191 -1
644 2 12 315 421 191 -1
645 2 12 314 422 190 -1
646 2 12 314 423 191 -1
647 4 12 315 424 190 -1
648 2 12 315 423 190 -1
649 4 12 315 424 189 -1
650 0 13 177 254 453 651
651 1 13 177 253 452 650
652 2 13 176 254 451 -1
653 3 13 177 255 452 -1
654 4 13 178 254 451 -1
655 5 13 177 254 451 -1
656 0 13 178 255 450 660
657 6 13 177 256 451 -1
658 3 13 176 257 450 -1
659 5 13 177 256 449 -1
660 1 13 178 255 449 656
661 7 13 179 255 448 -1
662 8 13 179 256 447 -1
663 6 13 180 255 446 -1
664 9 13 181 256 445 -1
665 8 13 181 257 445 -1
666 6 13 181 257 446 -1
667 6 13 182 257 445 -1
668 6 13 183 256 444 -1
669 7 13 182 255 445 -1
670 3 13 182 254 445 -1
671 5 13 182 253 444 -1
672 7 13 182 252 444 -1
673 5 13 183 253 445 -1
674 1 13 183 254 446 -1
675 3 13 183 253 447 -1
676 4 13 182 252 446 -1
677 3 13 181 253 447 -1
678 3 13 182 254 447 -1
679 5 13 182 255 447 -1
680 6 13 182 254 446 -1
681 4 13 181 254 447 -1
682 2 13 180 255 447 -1
683 2 13 181 254 448 -1
684 2 13 182 253 449 -1
685 2 13 182 253 448 -1
686 2 13 182 252 449 -1
687 4 13 181 251 449 -1
688 2 13 181 250 448 -1
689 2 13 182 250 448 -1
690 2 13 181 251 447 -1
691 2 13 181 250 446 -1
692 2 13 182 250 446 -1
693 2 13 182 250 447 -1
694 2 13 183 250 446 -1
695 2 13 184 251 446 -1
696 2 13 185 250 447 -1
697 4 13 186 250 446 -1
698 2 13 185 251 446 -1
699 4 13 184 252 445 -1
700 0 14 414 31 331 -1
701 1 14 415 30 330 -1
702 2 14 414 29 329 -1
703 3 14 415 28 329 -1
704 4 14 414 29 330 -1
705 5 14 413 28 331 -1
706 0 14 412 27 332 710
707 6 14 412 26 333 -1
708 3 14 411 26 333 -1
709 5 14 412 27 333 -1
710 1 14 413 27 333 706
711 7 14 412 28 333 -1
712 8 14 413 28 334 -1
713 6 14 413 29 334 -1
714 9 14 413 29 335 -1
715 8 14 413 30 336 -1
716 6 14 413 31 337 -1
717 6 14 414 32 337 -1
718 6 14 414 32 338 -1
719 7 14 414 33 337 -1
720 3 14 413 32 337 -1
721 5 14 413 33 336 -1
722 7 14 412 34 337 -1
723 5 14 411 35 336 -1
724 1 14 411 36 335 -1
725 3 14 411 37 335 -1
726 4 14 410 38 335 -1
727 3 14 411 39 335 -1
728 3 14 412 39 336 -1
729 5 14 412 40 337 -1
730 6 14 411 39 338 -1
731 4 14 411 39 337 -1
732 2 14 410 40 338 -1
733 2 14 410 39 339 -1
734 2 14 410 38 339 -1
735 2 14 410 39 340 -1
736 2 14 411 38 340 -1
737 4 14 412 38 339 -1
738 2 14 413 37 339 -1
739 2 14 412 36 340 -1
740 2 14 411 36 341 -1
741 2 14 410 36 342 -1
742 2 14 411 35 343 -1
743 2 14 412 35 344 -1
744 2 14 411 36 344 -1
745 2 14 411 37 344 -1
746 2 14 412 37 343 -1
747 4 14 411 37 342 -1
748 2 14 412 38 342 -1
749 4 14 413 39 341 -1
750 0 15 51 227 414 751
751 1 15 51 228 415 750
752 2 15 51 227 416 -1
753 3 15 50 226 415 -1
754 4 15 49 227 416 -1
755 5 15 50 226 416 -1
756 0 15 49 226 417 760
757 6 15 49 225 417 -1
758 3 15 48 226 416 -1
759 5 15 48 226 417 -1
760 1 15 48 227 416 756
761 7 15 47 228 415 -1
762 8 15 48 227 414 -1
763 6 15 47 226 415 -1
764 9 15 46 226 416 -1
765 8 15 46 226 415 -1
766 6 15 46 225 414 -1
767 6 15 46 225 413 -1
768 6 15 47 226 412 -1
769 7 15 46 227 412 -1
770 3 15 46 226 411 -1
771 5 15 45 226 410 -1
772 7 15 46 225 409 -1
773 5 15 45 224 410 -1
774 1 15 46 224 411 -1
775 3 15 45 223 410 -1
776 4 15 44 224 411 -1
777 3 15 43 225 412 -1
778 3 15 42 225 413 -1
779 5 15 41 224 412 -1
780 6 15 41 223 411 -1
781 4 15 41 223 410 -1
782 2 15 42 222 409 -1
783 2 15 41 222 408 -1
784 2 15 42 222 408 -1
785 2 15 43 221 408 -1
786 2 15 43 220 408 -1
787 4 15 42 220 409 -1
788 2 15 43 219 408 -1
789 2 15 43 218 407 -1
790 2 15 43 219 406 -1
791 2 15 44 219 407 -1
792 2 15 45 219 408 -1
793 2 15 44 220 409 -1
794 2 15 44 219 409 -1
795 2 15 44 220 410 -1
796 2 15 44 219 411 -1
797 4 15 43 218 412 -1
798 2 15 42 219 412 -1
799 4 15 43 220 412 -1
800 0 16 412 430 93 801
801 1 16 411 429 94 800
802 2 16 410 429 94 -1
803 3 16 410 429 93 -1
804 4 16 411 429 92 -1
805 5 16 410 429 91 -1
806 0 16 411 428 91 810
807 6 16 412 427 91 -1
808 3 16 412 426 90 -1
809 5 16 411 426 91 -1
810 1 16 410 427 91 806
811 7 16 409 427 90 -1
812 8 16 408 427 89 -1
813 6 16 409 428 88 -1
814 9 16 408 427 87 -1
815 8 16 408 426 87 -1
816 6 16 407 426 86 -1
817 6 16 408 427 85 -1
818 6 16 409 427 86 -1
819 7 16 409 426 85 -1
820 3 16 409 425 84 -1
821 5 16 409 426 83 -1
822 7 16 408 426 82 -1
823 5 16 408 425 82 -1
824 1 16 407 424 81 -1
825 3 16 407 423 81 -1
826 4 16 407 422 82 -1
827 3 16 407 423 82 -1
828 3 16 406 424 81 -1
829 5 16 406 425 80 -1
830 6 16 406 425 81 -1
831 4 16 407 425 80 -1
832 2 16 408 426 79 -1
833 2 16 409 426 80 -1
834 2 16 408 427 80 -1
835 2 16 407 428 80 -1
836 2 16 406 429 81 -1
837 4 16 407 429 82 -1
838 2 16 407 428 81 -1
839 2 16 406 427 82 -1
840 2 16 405 427 81 -1
841 2 16 405 426 82 -1
842 2 16 405 425 82 -1
843 2 16 404 424 81 -1
844 2 16 404 423 81 -1
845 2 16 405 423 80 -1
846 2 16 406 424 79 -1
847 4 16 406 425 78 -1
848 2 16 405 424 79 -1
849 4 16 405 425 78 -1
850 0 17 370 202 200 851
851 1 17 369 203 201 850
852 2 17 369 204 200 -1
853 3 17 368 204 199 -1
854 4 17 368 205 198 -1
855 5 17 369 205 198 -1
856 0 17 368 204 198 860
857 6 17 367 203 197 -1
858 3 17 367 204 198 -1
859 5 17 368 203 198 -1
860 1 17 367 204 199 856
861 7 17 366 204 198 -1
862 8 17 365 203 198 -1
863 6 17 365 203 199 -1
864 9 17 365 204 200 -1
865 8 17 365 203 201 -1
866 6 17 365 202 200 -1
867 6 17 365 202 201 -1
868 6 17 364 201 201 -1
869 7 17 363 202 201 -1
870 3 17 362 201 200 -1
871 5 17 361 200 199 -1
872 7 17 360 201 199 -1
873 5 17 359 202 200 -1
874 1 17 359 203 199 -1
875 3 17 359 204 198 -1
876 4 17 360 205 198 -1
877 3 17 361 204 197 -1
878 3 17 362 205 197 -1
879 5 17 363 205 197 -1
880 6 17 364 205 196 -1
881 4 17 364 205 195 -1
882 2 17 363 206 195 -1
883 2 17 362 205 196 -1
884 2 17 363 204 195 -1
885 2 17 363 205 194 -1
886 2 17 364 206 193 -1
887 4 17 365 206 194 -1
888 2 17 365 207 193 -1
889 2 17 366 208 194 -1
890 2 17 367 207 193 -1
891 2 17 368 208 193 -1
892 2 17 368 207 193 -1
893 2 17 368 206 192 -1
894 2 17 369 206 191 -1
895 2 17 369 205 191 -1
896 2 17 370 205 191 -1
897 4 17 370 205 192 -1
898 2 17 370 205 193 -1
899 4 17 370 205 194 -1
900 0 18 159 442 447 901
901 1 18 160 442 447 900
902 2 18 159 443 448 -1
903 3 18 160 444 448 -1
904 4 18 161 443 448 -1
905 5 18 162 443 448 -1
906 0 18 161 444 447 924
907 6 18 161 444 446 -1
908 3 18 162 445 446 -1
909 5 18 161 446 447 -1
910 1 18 162 446 446 -1
911 7 18 163 445 447 -1
912 8 18 164 446 446 -1
913 6 18 164 445 447 -1
914 9 18 165 444 448 -1
915 8 18 166 443 448 -1
916 6 18 166 444 448 -1
917 6 18 165 444 447 -1
918 6 18 164 443 446 -1
919 7 18 163 442 445 -1
920 3 18 162 442 446 -1
921 5 18 161 442 447 -1
922 7 18 161 443 446 -1
923 5 18 160 444 445 -1
924 1 18 160 443 446 906
925 3 18 159 443 446 -1
926 4 18 159 442 445 -1
927 3 18 158 443 446 -1
928 3 18 157 443 447 -1
929 5 18 157 444 447 -1
930 6 18 157 445 448 -1
931 4 18 157 446 447 -1
932 2 18 158 447 447 -1
933 2 18 159 446 448 -1
934 2 18 158 446 447 -1
935 2 18 158 446 446 -1
936 2 18 157 447 447 -1
937 4 18 157 448 447 -1
938 2 18 158 449 448 -1
939 2 18 158 449 449 -1
940 2 18 157 450 448 -1
941 2 18 156 450 448 -1
942 2 18 157 450 449 -1
943 2 18 157 449 448 -1
944 2 18 158 450 448 -1
945 2 18 159 449 447 -1
946 2 18 160 449 446 -1
947 4 18 159 450 447 -1
948 2 18 160 451 448 -1
949 4 18 160 452 447 -1
950 0 19 450 208 368 -1
951 1 19 449 208 367 956
952 2 19 448 208 368 -1
953 3 19 449 208 368 -1
954 4 19 448 209 367 -1
955 5 19 448 210 367 -1
956 0 19 449 209 366 951
957 6 19 450 210 366 -1
958 3 19 450 210 367 -1
959 5 19 451 211 366 -1
960 1 19 451 211 365 -1
961 7 19 452 211 366 -1
962 8 19 453 211 367 -1
963 6 19 453 211 366 -1
964 9 19 452 210 366 -1
965 8 19 453 209 366 -1
966 6 19 453 210 365 -1
967 6 19 454 211 364 -1
968 6 19 454 212 364 -1
969 7 19 455 212 363 -1
970 3 19 455 212 364 -1
971 5 19 456 211 365 -1
972 7 19 457 211 365 -1
973 5 19 457 211 366 -1
974 1 19 457 212 367 -1
975 3 19 458 211 366 -1
976 4 19 458 211 365 -1
977 3 19 459 211 364 -1
978 3 19 460 211 363 -1
979 5 19 461 211 363 -1
980 6 19 461 211 364 -1
981 4 19 460 212 365 -1
982 2 19 460 213 366 -1
983 2 19 461 212 365 -1
984 2 19 462 213 365 -1
985 2 19 463 214 365 -1
986 2 19 464 215 365 -1
987 4 19 463 214 366 -1
988 2 19 464 213 366 -1
989 2 19 463 212 366 -1
990 2 19 462 211 366 -1
991 2 19 463 210 367 -1
992 2 19 463 210 366 -1
993 2 19 464 210 365 -1
994 2 19 463 209 364 -1
995 2 19 463 209 363 -1
996 2 19 463 208 364 -1
997 4 19 462 207 365 -1
998 2 19 461 207 364 -1
999 4 19 462 206 363 -1
1000 0 20 61 186 98 1001
1001 1 20 60 186 98 1000
1002 2 20 59 185 97 -1
1003 3 20 59 184 97 -1
1004 4 20 58 185 97 -1
1005 5 20 59 184 96 -1
1006 0 20 60 183 95 -1
1007 6 20 59 183 96 -1
1008 3 20 58 182 96 -1
1009 5 20 57 182 95 -1
1010 1 20 58 183 95 -1
1011 7 20 58 184 94 -1
1012 8 20 59 184 95 -1
1013 6 20 58 184 96 -1
1014 9 20 58 184 95 -1
1015 8 20 59 183 95 -1
1016 6 20 58 182 95 -1
1017 6 20 59 182 94 -1
1018 6 20 60 183 94 -1
1019 7 20 60 182 95 -1
1020 3 20 59 181 96 -1
1021 5 20 59 182 95 -1
1022 7 20 59 181 94 -1
1023 5 20 60 182 94 -1
1024 1 20 61 182 94 -1
1025 3 20 61 181 93 -1
1026 4 20 61 182 93 -1
1027 3 20 60 181 93 -1
1028 3 20 60 182 92 -1
1029 5 20 61 182 92 -1
1030 6 20 60 183 92 -1
1031 4 20 60 183 91 -1
1032 2 20 60 182 90 -1
1033 2 20 59 183 89 -1
1034 2 20 60 184 90 -1
1035 2 20 61 183 90 -1
1036 2 20 62 184 89 -1
1037 4 20 61 183 88 -1
1038 2 20 62 184 87 -1
1039 2 20 61 185 88 -1
1040 2 20 61 186 88 -1
1041 2 20 62 187 88 -1
1042 2 20 63 186 89 -1
1043 2 20 62 187 90 -1
1044 2 20 62 186 91 -1
1045 2 20 63 186 91 -1
1046 2 20 62 186 90 -1
1047 4 20 63 187 91 -1
1048 2 20 64 187 90 -1
1049 4 20 64 187 89 -1
1050 0 21 221 339 407 1051
1051 1 21 222 338 406 1050
1052 2 21 221 337 407 -1
1053 3 21 221 336 408 -1
1054 4 21 222 335 408 -1
1055 5 21 221 334 408 -1
1056 0 21 222 335 407 -1
1057 6 21 221 334 407 -1
1058 3 21 220 333 408 -1
1059 5 21 219 332 409 -1
1060 1 21 220 331 410 -1
1061 7 21 221 331 411 -1
1062 8 21 220 332 411 -1
1063 6 21 221 331 410 -1
1064 9 21 221 332 411 -1
1065 8 21 220 332 412 -1
1066 6 21 221 333 411 -1
1067 6 21 221 334 412 -1
1068 6 21 220 334 413 -1
1069 7 21 221 335 414 -1
1070 3 21 221 336 413 -1
1071 5 21 220 337 412 -1
1072 7 21 219 338 412 -1
1073 5 21 218 339 413 -1
1074 1 21 217 338 413 -1
1075 3 21 216 337 413 -1
1076 4 21 216 338 412 -1
1077 3 21 216 339 412 -1
1078 3 21 216 340 412 -1
1079 5 21 216 341 411 -1
1080 6 21 216 342 412 -1
1081 4 21 216 343 413 -1
1082 2 21 217 344 413 -1
1083 2 21 217 345 412 -1
1084 2 21 216 345 411 -1
1085 2 21 216 344 412 -1
1086 2 21 216 344 413 -1
1087 4 21 217 344 412 -1
1088 2 21 216 343 411 -1
1089 2 21 216 342 411 -1
1090 2 21 217 342 412 -1
1091 2 21 218 343 412 -1
1092 2 21 219 344 411 -1
1093 2 21 219 345 410 -1
1094 2 21 218 346 410 -1
1095 2 21 217 345 409 -1
1096 2 21 217 344 408 -1
1097 4 21 218 344 407 -1
1098 2 21 219 344 406 -1
1099 4 21 218 344 406 -1
1100 0 22 250 230 474 1101
1101 1 22 250 230 473 1100
1102 2 22 251 229 472 -1
1103 3 22 252 229 471 -1
1104 4 22 253 230 472 -1
1105 5 22 254 229 473 -1
1106 0 22 255 228 474 1110
1107 6 22 254 228 475 -1
1108 3 22 254 228 476 -1
1109 5 22 255 228 475 -1
1110 1 22 254 227 474 1106
1111 7 22 254 228 473 -1
1112 8 22 253 227 474 -1
1113 6 22 254 227 473 -1
1114 9 22 255 228 472 -1
1115 8 22 255 227 472 -1
1116 6 22 254 226 473 -1
1117 6 22 253 227 472 -1
1118 6 22 253 226 471 -1
1119 7 22 252 226 470 -1
1120 3 22 251 226 469 -1
1121 5 22 250 227 468 -1
1122 7 22 250 228 468 -1
1123 5 22 251 229 469 -1
1124 1 22 252 228 470 -1
1125 3 22 253 229 470 -1
1126 4 22 254 228 469 -1
1127 3 22 253 229 469 -1
1128 3 22 253 228 468 -1
1129 5 22 254 228 468 -1
1130 6 22 254 227 468 -1
1131 4 22 254 227 467 -1
1132 2 22 255 226 466 -1
1133 2 22 255 225 466 -1
1134 2 22 256 225 465 -1
1135 2 22 256 224 464 -1
1136 2 22 256 224 465 -1
1137 4 22 257 225 466 -1
1138 2 22 258 225 466 -1
1139 2 22 257 224 466 -1
1140 2 22 258 225 465 -1
1141 2 22 259 224 464 -1
1142 2 22 260 225 463 -1
1143 2 22 260 224 464 -1
1144 2 22 261 225 464 -1
1145 2 22 262 225 465 -1
1146 2 22 263 226 466 -1
1147 4 22 263 227 465 -1
1148 2 22 263 228 465 -1
1149 4 22 262 227 464 -1
1150 0 23 150 183 48 1151
1151 1 23 149 184 49 1150
1152 2 23 150 184 49 -1
1153 3 23 151 183 49 -1
1154 4 23 152 183 49 -1
1155 5 23 153 184 49 -1
1156 0 23 154 184 49 -1
1157 6 23 154 184 50 -1
1158 3 23 155 184 49 -1
1159 5 23 155 185 50 -1
1160 1 23 154 185 50 -1
1161 7 23 155 186 50 -1
1162 8 23 156 187 51 -1
1163 6 23 155 188 50 -1
1164 9 23 154 188 51 -1
1165 8 23 153 188 51 -1
1166 6 23 153 187 50 -1
1167 6 23 153 188 50 -1
1168 6 23 152 188 51 -1
1169 7 23 153 189 52 -1
1170 3 23 152 190 53 -1
1171 5 23 152 189 53 -1
1172 7 23 153 190 53 -1
1173 5 23 154 190 54 -1
1174 1 23 155 189 54 -1
1175 3 23 155 189 53 -1
1176 4 23 154 189 52 -1
1177 3 23 155 190 52 -1
1178 3 23 156 191 53 -1
1179 5 23 157 190 52 -1
1180 6 23 158 189 53 -1
1181 4 23 157 189 53 -1
1182 2 23 156 188 52 -1
1183 2 23 156 189 52 -1
1184 2 23 155 190 51 -1
1185 2 23 156 190 50 -1
1186 2 23 155 191 50 -1
1187 4 23 156 192 49 -1
1188 2 23 157 192 49 -1
1189 2 23 157 193 50 -1
1190 2 23 157 194 51 -1
1191 2 23 156 195 51 -1
1192 2 23 157 195 50 -1
1193 2 23 157 195 51 -1
1194 2 23 156 194 52 -1
1195 2 23 155 193 52 -1
1196 2 23 156 192 51 -1
1197 4 23 157 192 52 -1
1198 2 23 158 191 51 -1
1199 4 23 159 192 51 -1
1200 0 24 38 188 343 -1
1201 1 24 39 188 343 -1
1202 2 24 40 189 342 -1
1203 3 24 41 188 341 -1
1204 4 24 41 188 342 -1
1205 5 24 41 188 343 -1
1206 0 24 40 187 343 1210
1207 6 24 41 187 343 -1
1208 3 24 40 186 342 -1
1209 5 24 39 187 343 -1
1210 1 24 39 186 342 1206
1211 7 24 38 185 341 -1
1212 8 24 39 185 340 -1
1213 6 24 38 186 339 -1
1214 9 24 38 186 338 -1
1215 8 24 38 187 338 -1
1216 6 24 37 187 337 -1
1217 6 24 36 187 336 -1
1218 6 24 35 186 337 -1
1219 7 24 36 186 338 -1
1220 3 24 35 185 338 -1
1221 5 24 35 184 337 -1
1222 7 24 36 183 336 -1
1223 5 24 37 184 335 -1
1224 1 24 37 185 336 -1
1225 3 24 38 186 337 -1
1226 4 24 38 185 336 -1
1227 3 24 37 184 336 -1
1228 3 24 38 183 337 -1
1229 5 24 37 182 338 -1
1230 6 24 38 181 339 -1
1231 4 24 39 182 339 -1
1232 2 24 40 181 339 -1
1233 2 24 39 182 338 -1
1234 2 24 40 182 338 -1
1235 2 24 40 182 337 -1
1236 2 24 39 181 338 -1
1237 4 24 39 180 339 -1
1238 2 24 40 181 340 -1
1239 2 24 40 180 339 -1
1240 2 24 39 180 338 -1
1241 2 24 38 179 339 -1
1242 2 24 37 180 340 -1
1243 2 24 36 181 340 -1
1244 2 24 36 180 340 -1
1245 2 24 35 180 341 -1
1246 2 24 34 181 340 -1
1247 4 24 35 182 340 -1
1248 2 24 36 183 341 -1
1249 4 24 36 184 341 -1
1250 0 25 89 36 121 1251
1251 1 25 89 36 120 1250
1252 2 25 88 37 120 -1
1253 3 25 87 37 120 -1
1254 4 25 86 36 121 -1
1255 5 25 86 35 122 -1
1256 0 25 87 34 123 1274
1257 6 25 87 33 123 -1
1258 3 25 86 32 124 -1
1259 5 25 86 33 124 -1
1260 1 25 86 33 123 -1
1261 7 25 85 32 123 -1
1262 8 25 85 32 122 -1
1263 6 25 86 33 121 -1
1264 9 25 85 34 122 -1
1265 8 25 84 35 122 -1
1266 6 25 85 36 122 -1
1267 6 25 86 36 122 -1
1268 6 25 86 37 122 -1
1269 7 25 86 38 122 -1
1270 3 25 85 37 123 -1
1271 5 25 86 36 123 -1
1272 7 25 85 35 124 -1
1273 5 25 86 35 123 -1
1274 1 25 86 34 123 1256
1275 3 25 87 33 122 -1
1276 4 25 86 32 121 -1
1277 3 25 86 31 122 -1
1278 3 25 87 31 122 -1
1279 5 25 88 30 123 -1
1280 6 25 88 30 122 -1
1281 4 25 89 30 122 -1
1282 2 25 88 29 122 -1
1283 2 25 89 28 123 -1
1284 2 25 88 28 122 -1
1285 2 25 87 27 122 -1
1286 2 25 87 26 121 -1
1287 4 25 86 27 121 -1
1288 2 25 87 26 122 -1
1289 2 25 86 26 123 -1
1290 2 25 86 26 124 -1
1291 2 25 86 25 125 -1
1292 2 25 85 26 124 -1
1293 2 25 86 26 125 -1
1294 2 25 86 25 126 -1
1295 2 25 86 26 127 -1
1296 2 25 87 27 128 -1