ITEM: TIMESTEP
0
ITEM: NUMBER OF ATOMS
10000
ITEM: BOX BOUNDS pp pp pp
0 200
0 200
0 200
ITEM: ATOMS id type mol x y z bP
0 0 0 44 198 2 -1
1 0 0 43 198 1 7383
2 0 0 42 198 1 -1
3 0 0 42 199 0 7382
4 0 0 41 198 1 7386
5 0 0 41 197 0 7381
6 0 0 40 198 1 7385
7 0 0 40 198 2 7387
8 0 0 41 198 2 5167
9 0 0 42 197 3 5166
10 0 1 122 60 67 -1
11 0 1 121 60 67 -1
12 0 1 122 60 66 -1
13 0 1 123 61 65 -1
14 0 1 124 60 65 5729
15 0 1 124 61 66 -1
16 0 1 125 61 66 -1
17 0 1 125 60 67 5726
18 0 1 124 59 66 5728
19 0 1 125 58 66 5722
20 0 2 128 61 63 7288
21 0 2 128 60 64 -1
22 0 2 129 61 65 7280
23 0 2 130 61 66 7281
24 0 2 129 62 67 -1
25 0 2 129 62 66 7282
26 0 2 128 61 65 -1
27 0 2 129 60 66 7286
28 0 2 128 59 66 -1
29 0 2 127 58 65 -1
30 0 3 93 185 97 -1
31 0 3 93 186 98 -1
32 0 3 92 185 99 5968
33 0 3 93 185 100 -1
34 0 3 93 186 101 -1
35 0 3 92 185 102 5960
36 0 3 92 184 101 -1
37 0 3 91 185 102 5966
38 0 3 90 185 101 5967
39 0 3 89 185 101 5962
40 0 4 53 22 103 -1
41 0 4 53 23 103 6494
42 0 4 54 23 102 6498
43 0 4 53 23 102 6493
44 0 4 52 24 102 6490
45 0 4 51 25 103 -1
46 0 4 52 25 103 -1
47 0 4 52 26 102 -1
48 0 4 53 26 102 6491
49 0 4 52 26 101 6492
50 0 5 199 79 43 5241
51 0 5 0 80 44 5245
52 0 5 199 80 43 5243
53 0 5 198 80 44 5242
54 0 5 199 81 43 5240
55 0 5 198 81 43 -1
56 0 5 197 82 43 -1
57 0 5 197 83 44 -1
58 0 5 197 83 43 -1
59 0 5 197 82 42 5248
60 0 6 73 135 169 6476
61 0 6 74 135 168 6474
62 0 6 74 135 169 6477
63 0 6 75 134 169 -1
64 0 6 74 133 169 -1
65 0 6 73 133 168 6473
66 0 6 74 132 169 6470
67 0 6 75 132 168 -1
68 0 6 75 132 169 6472
69 0 6 74 133 170 6479
70 0 7 117 99 49 9319
71 0 7 116 98 50 9313
72 0 7 117 98 50 -1
73 0 7 117 99 50 -1
74 0 7 116 99 50 -1
75 0 7 115 99 49 -1
76 0 7 116 100 49 -1
77 0 7 117 101 50 -1
78 0 7 116 102 50 9310
79 0 7 116 101 51 -1
80 0 8 171 37 134 -1
81 0 8 171 37 133 7604
82 0 8 171 36 133 7601
83 0 8 172 37 132 7600
84 0 8 171 37 132 7608
85 0 8 170 38 132 -1
86 0 8 171 38 133 7607
87 0 8 171 39 134 -1
88 0 8 172 39 133 7605
89 0 8 173 40 132 -1
90 0 9 122 100 44 -1
91 0 9 123 100 45 -1
92 0 9 124 100 44 -1
93 0 9 124 99 43 -1
94 0 9 123 99 42 -1
95 0 9 124 98 41 -1
96 0 9 125 99 41 9557
97 0 9 126 100 42 6525
98 0 9 125 99 43 6528
99 0 9 126 100 44 6526
100 0 10 96 27 38 -1
101 0 10 95 26 37 -1
102 0 10 94 25 36 -1
103 0 10 94 26 35 -1
104 0 10 94 27 34 6225
105 0 10 93 26 33 6228
106 0 10 94 27 32 6229
107 0 10 93 28 32 6224
108 0 10 94 28 31 -1
109 0 10 95 28 32 -1
110 0 11 75 168 153 9149
111 0 11 75 169 152 9146
112 0 11 75 170 152 9148
113 0 11 75 171 153 9147
114 0 11 74 170 154 -1
115 0 11 75 170 155 -1
116 0 11 75 169 155 9145
117 0 11 76 169 154 -1
118 0 11 77 168 153 9144
119 0 11 78 167 152 9141
120 0 12 174 36 146 -1
121 0 12 173 37 147 5205
122 0 12 173 37 148 -1
123 0 12 174 37 147 5204
124 0 12 175 36 146 -1
125 0 12 174 35 145 8891
126 0 12 173 34 146 5202
127 0 12 172 33 146 -1
128 0 12 171 34 145 5201
129 0 12 172 34 146 5200
130 0 13 38 176 6 -1
131 0 13 38 175 5 6155
132 0 13 39 174 5 6159
133 0 13 38 173 4 6156
134 0 13 39 174 4 6157
135 0 13 39 173 4 -1
136 0 13 40 173 4 6152
137 0 13 40 172 3 6150
138 0 13 41 172 3 6151
139 0 13 41 172 4 -1
140 0 14 158 71 87 7001
141 0 14 158 72 88 7002
142 0 14 157 71 89 7004
143 0 14 158 70 90 7005
144 0 14 159 71 90 -1
145 0 14 158 70 89 7003
146 0 14 157 70 89 -1
147 0 14 158 69 89 -1
148 0 14 157 68 89 -1
149 0 14 156 69 88 -1
150 0 15 50 113 37 -1
151 0 15 50 112 38 9059
152 0 15 49 112 37 -1
153 0 15 50 111 36 9052
154 0 15 50 111 37 -1
155 0 15 49 110 36 9057
156 0 15 48 109 35 -1
157 0 15 47 109 35 9053
158 0 15 48 109 34 9050
159 0 15 47 109 33 -1
160 0 16 35 76 83 9981
161 0 16 35 75 82 9984
162 0 16 36 76 82 9985
163 0 16 36 77 81 -1
164 0 16 37 78 82 -1
165 0 16 37 77 83 9987
166 0 16 36 77 84 8170
167 0 16 35 78 85 9983
168 0 16 34 77 86 -1
169 0 16 34 77 85 8171
170 0 17 106 43 23 7874
171 0 17 105 42 22 -1
172 0 17 104 42 22 8006
173 0 17 103 41 21 8004
174 0 17 103 40 22 -1
175 0 17 102 40 22 -1
176 0 17 101 41 23 7461
177 0 17 102 42 24 -1
178 0 17 103 42 24 8001
179 0 17 102 42 23 8000
180 0 18 103 191 31 7685
181 0 18 104 191 30 7683
182 0 18 103 192 31 7684
183 0 18 102 193 32 7681
184 0 18 102 193 33 -1
185 0 18 101 192 33 7687
186 0 18 101 192 32 -1
187 0 18 101 192 31 -1
188 0 18 100 193 30 -1
189 0 18 101 194 31 -1
190 0 19 81 107 198 -1
191 0 19 81 108 199 -1
192 0 19 81 107 0 -1
193 0 19 81 107 1 -1
194 0 19 81 108 2 -1
195 0 19 81 107 2 5003
196 0 19 80 108 2 5004
197 0 19 80 109 2 5821
198 0 19 79 110 1 5820
199 0 19 78 109 0 -1
200 0 20 87 132 67 -1
201 0 20 88 133 68 5344
202 0 20 89 132 69 5345
203 0 20 89 132 68 5347
204 0 20 89 133 69 -1
205 0 20 88 134 69 5343
206 0 20 87 135 69 5342
207 0 20 86 135 68 -1
208 0 20 85 136 69 5340
209 0 20 84 136 70 -1
210 0 21 111 83 18 -1
211 0 21 112 83 18 9892
212 0 21 111 82 17 9894
213 0 21 112 81 16 -1
214 0 21 111 80 17 9896
215 0 21 110 81 16 -1
216 0 21 110 82 15 -1
217 0 21 111 83 15 9890
218 0 21 110 84 14 -1
219 0 21 109 84 14 -1
220 0 22 195 150 188 8127
221 0 22 195 150 187 8128
222 0 22 195 149 187 -1
223 0 22 196 149 186 -1
224 0 22 195 149 185 -1
225 0 22 194 150 184 -1
226 0 22 195 151 185 7274
227 0 22 195 152 186 8120
228 0 22 195 152 185 7277
229 0 22 194 151 186 8123
230 0 23 66 172 18 -1
231 0 23 67 171 19 -1
232 0 23 66 171 20 6669
233 0 23 67 171 20 6667
234 0 23 66 170 21 -1
235 0 23 65 169 22 -1
236 0 23 65 168 23 -1
237 0 23 64 169 23 6664
238 0 23 65 169 23 6660
239 0 23 64 170 24 6661
240 0 24 170 103 172 -1
241 0 24 169 104 173 -1
242 0 24 169 104 174 -1
243 0 24 169 105 175 5802
244 0 24 168 105 175 -1
245 0 24 167 106 175 -1
246 0 24 167 105 176 -1
247 0 24 168 106 176 -1
248 0 24 169 106 175 5805
249 0 24 169 107 175 5806
250 0 25 135 149 123 8687
251 0 25 134 149 123 8681
252 0 25 134 149 122 8682
253 0 25 133 150 121 -1
254 0 25 134 149 120 -1
255 0 25 134 150 121 -1
256 0 25 135 150 121 8688
257 0 25 135 150 122 -1
258 0 25 136 149 123 -1
259 0 25 137 148 123 8685
260 0 26 126 164 36 9223
261 0 26 125 164 36 -1
262 0 26 125 163 36 -1
263 0 26 126 163 36 9226
264 0 26 127 162 36 9225
265 0 26 128 161 36 -1
266 0 26 128 160 37 9227
267 0 26 129 161 38 9228
268 0 26 128 161 38 -1
269 0 26 127 162 39 -1
270 0 27 157 13 80 7674
271 0 27 156 12 80 7675
272 0 27 155 13 80 7676
273 0 27 154 12 81 -1
274 0 27 155 11 80 7677
275 0 27 156 11 81 -1
276 0 27 157 11 81 7671
277 0 27 156 10 81 7679
278 0 27 157 10 82 7672
279 0 27 157 10 83 7670
280 0 28 133 56 4 -1
281 0 28 134 55 3 9367
282 0 28 134 55 4 -1
283 0 28 135 54 3 -1
284 0 28 136 55 2 9365
285 0 28 137 56 1 -1
286 0 28 138 55 0 9360
287 0 28 138 55 199 9361
288 0 28 137 54 199 -1
289 0 28 136 53 199 9364
290 0 29 10 92 148 -1
291 0 29 9 91 148 -1
292 0 29 8 90 149 5284
293 0 29 8 89 148 5285
294 0 29 9 90 147 5283
295 0 29 9 91 147 -1
296 0 29 10 91 147 5282
297 0 29 10 90 148 5280
298 0 29 11 89 147 5281
299 0 29 12 89 147 -1
300 0 30 30 57 173 9954
301 0 30 31 56 173 9953
302 0 30 30 55 173 -1
303 0 30 31 55 173 -1
304 0 30 30 54 173 9952
305 0 30 30 55 172 -1
306 0 30 31 56 171 9957
307 0 30 32 57 172 -1
308 0 30 31 58 171 9956
309 0 30 30 57 172 -1
310 0 31 111 185 189 -1
311 0 31 112 185 190 -1
312 0 31 112 185 191 -1
313 0 31 111 184 192 -1
314 0 31 112 183 193 -1
315 0 31 112 183 192 -1
316 0 31 113 184 192 6452
317 0 31 113 183 193 -1
318 0 31 114 184 193 6450
319 0 31 115 184 192 -1
320 0 32 20 157 133 -1
321 0 32 20 158 134 -1
322 0 32 20 159 134 9941
323 0 32 19 160 135 -1
324 0 32 19 160 134 -1
325 0 32 20 159 135 9945
326 0 32 19 159 136 -1
327 0 32 18 158 135 9940
328 0 32 19 158 134 -1
329 0 32 18 159 133 9944
330 0 33 25 158 127 -1
331 0 33 25 157 127 5635
332 0 33 26 158 128 -1
333 0 33 25 159 129 -1
334 0 33 26 159 129 -1
335 0 33 25 158 129 5633
336 0 33 25 157 129 5634
337 0 33 24 156 130 5639
338 0 33 23 156 129 5637
339 0 33 22 155 129 5638
340 0 34 85 3 68 7110
341 0 34 85 4 67 -1
342 0 34 85 3 66 7116
343 0 34 84 2 67 7115
344 0 34 84 1 67 -1
345 0 34 85 0 67 7114
346 0 34 86 1 68 -1
347 0 34 87 2 69 -1
348 0 34 86 1 70 -1
349 0 34 86 0 70 -1
350 0 35 15 78 85 -1
351 0 35 16 77 85 7440
352 0 35 17 77 85 -1
353 0 35 16 78 86 7445
354 0 35 15 79 85 -1
355 0 35 16 80 85 7442
356 0 35 15 81 86 -1
357 0 35 14 82 86 -1
358 0 35 13 82 86 -1
359 0 35 13 81 85 -1
360 0 36 22 190 7 -1
361 0 36 22 189 7 -1
362 0 36 21 188 7 5978
363 0 36 22 187 6 5979
364 0 36 23 186 5 5971
365 0 36 22 185 4 5975
366 0 36 22 186 5 5974
367 0 36 21 186 5 -1
368 0 36 21 185 6 5977
369 0 36 21 184 5 -1
370 0 37 62 61 17 -1
371 0 37 61 61 18 -1
372 0 37 60 62 19 6381
373 0 37 60 61 19 -1
374 0 37 60 62 20 6380
375 0 37 61 62 21 -1
376 0 37 60 63 21 6383
377 0 37 59 64 21 6385
378 0 37 60 64 20 6384
379 0 37 61 63 21 6382
380 0 38 117 156 113 5783
381 0 38 117 155 113 5780
382 0 38 116 156 112 5784
383 0 38 117 156 111 5781
384 0 38 116 157 111 5785
385 0 38 117 158 111 -1
386 0 38 116 158 111 5786
387 0 38 115 157 111 5787
388 0 38 114 158 112 -1
389 0 38 113 159 113 -1
390 0 39 124 114 122 5112
391 0 39 125 114 123 -1
392 0 39 124 115 124 5114
393 0 39 123 114 123 -1
394 0 39 122 114 124 -1
395 0 39 122 115 123 -1
396 0 39 122 114 123 5110
397 0 39 121 113 122 -1
398 0 39 121 112 123 -1
399 0 39 122 112 123 5111
400 0 40 49 29 167 -1
401 0 40 48 28 168 -1
402 0 40 49 27 168 -1
403 0 40 48 27 169 -1
404 0 40 49 27 170 -1
405 0 40 49 27 171 7928
406 0 40 50 27 172 7925
407 0 40 50 26 173 -1
408 0 40 50 26 172 7926
409 0 40 49 26 171 7927
410 0 41 101 114 166 -1
411 0 41 100 114 165 -1
412 0 41 101 115 166 -1
413 0 41 101 116 166 8923
414 0 41 100 116 167 -1
415 0 41 99 117 167 8924
416 0 41 98 118 167 -1
417 0 41 99 117 168 8928
418 0 41 99 117 169 -1
419 0 41 98 116 168 8927
420 0 42 109 107 122 -1
421 0 42 108 106 123 -1
422 0 42 107 106 123 -1
423 0 42 107 105 123 -1
424 0 42 106 106 123 6742
425 0 42 105 106 123 6747
426 0 42 105 106 122 6741
427 0 42 105 107 121 -1
428 0 42 105 106 120 6743
429 0 42 104 106 119 6744
430 0 43 54 94 177 -1
431 0 43 53 95 176 -1
432 0 43 53 96 176 -1
433 0 43 54 95 175 -1
434 0 43 54 94 175 -1
435 0 43 54 93 174 -1
436 0 43 55 94 174 5917
437 0 43 56 94 173 5914
438 0 43 57 93 173 5919
439 0 43 57 93 172 5913
440 0 44 40 178 188 7246
441 0 44 39 177 187 -1
442 0 44 38 176 188 7244
443 0 44 39 176 187 -1
444 0 44 38 176 186 -1
445 0 44 38 176 187 7245
446 0 44 37 177 186 -1
447 0 44 37 176 185 7241
448 0 44 37 175 185 7242
449 0 44 38 175 185 -1
450 0 45 170 170 97 -1
451 0 45 169 171 96 8783
452 0 45 170 172 95 8780
453 0 45 171 172 96 8782
454 0 45 170 171 95 -1
455 0 45 169 170 96 8766
456 0 45 169 169 95 6431
457 0 45 170 168 95 -1
458 0 45 170 169 94 8760
459 0 45 169 170 95 8761
460 0 46 153 128 71 5871
461 0 46 154 128 71 5872
462 0 46 153 128 70 -1
463 0 46 154 128 70 9303
464 0 46 155 128 71 9304
465 0 46 156 127 70 9306
466 0 46 156 128 69 -1
467 0 46 156 129 70 9305
468 0 46 157 130 71 9308
469 0 46 157 131 70 -1
470 0 47 188 123 87 -1
471 0 47 188 123 88 -1
472 0 47 187 124 87 -1
473 0 47 187 123 88 -1
474 0 47 186 124 87 8438
475 0 47 185 123 87 8439
476 0 47 184 123 86 8436
477 0 47 185 122 85 8433
478 0 47 184 122 84 8432
479 0 47 184 123 83 8434
480 0 48 155 128 73 9300
481 0 48 154 128 73 5873
482 0 48 153 129 73 5875
483 0 48 154 130 73 -1
484 0 48 154 129 73 -1
485 0 48 155 130 73 9307
486 0 48 156 131 74 5134
487 0 48 156 131 73 -1
488 0 48 155 132 72 5133
489 0 48 155 133 72 5137
490 0 49 84 111 153 6046
491 0 49 84 112 154 -1
492 0 49 84 113 155 6043
493 0 49 85 112 154 6047
494 0 49 85 113 153 6044
495 0 49 85 114 153 6045
496 0 49 86 113 154 -1
497 0 49 86 112 155 -1
498 0 49 87 111 156 6040
499 0 49 88 110 155 -1
500 0 50 56 128 62 9183
501 0 50 57 127 63 -1
502 0 50 57 127 64 -1
503 0 50 57 128 64 -1
504 0 50 58 128 65 -1
505 0 50 57 129 65 -1
506 0 50 56 128 64 -1
507 0 50 55 129 63 9186
508 0 50 56 129 62 9184
509 0 50 56 130 61 9185
510 0 51 9 81 88 -1
511 0 51 9 81 89 -1
512 0 51 8 80 88 5611
513 0 51 7 80 88 5612
514 0 51 8 81 88 5616
515 0 51 7 80 87 -1
516 0 51 6 80 86 -1
517 0 51 6 80 87 -1
518 0 51 7 79 87 5614
519 0 51 7 78 87 5613
520 0 52 184 93 127 6137
521 0 52 183 94 127 6134
522 0 52 183 95 128 6133
523 0 52 183 94 129 6136
524 0 52 182 94 130 6130
525 0 52 183 94 131 -1
526 0 52 183 93 131 -1
527 0 52 182 94 131 -1
528 0 52 182 93 130 -1
529 0 52 182 93 129 -1
530 0 53 18 73 157 -1
531 0 53 17 72 157 -1
532 0 53 16 73 158 -1
533 0 53 17 72 159 7261
534 0 53 18 72 158 7260
535 0 53 19 71 158 7264
536 0 53 20 71 157 7269
537 0 53 21 71 158 7268
538 0 53 20 71 159 -1
539 0 53 20 72 158 7266
540 0 54 192 91 82 8448
541 0 54 191 91 82 8449
542 0 54 190 91 82 9406
543 0 54 190 92 81 8447
544 0 54 189 92 80 -1
545 0 54 190 91 81 8446
546 0 54 191 90 81 9407
547 0 54 190 90 82 9404
548 0 54 189 91 83 -1
549 0 54 188 90 84 -1
550 0 55 1 25 66 -1
551 0 55 1 24 67 -1
552 0 55 2 25 67 8039
553 0 55 3 25 66 8038
554 0 55 2 26 66 -1
555 0 55 3 27 66 8031
556 0 55 3 28 66 8030
557 0 55 3 28 65 8033
558 0 55 4 28 64 8036
559 0 55 5 29 65 8034
560 0 56 183 122 163 -1
561 0 56 183 123 164 -1
562 0 56 184 124 163 -1
563 0 56 184 125 162 6561
564 0 56 183 125 162 6563
565 0 56 182 124 162 6562
566 0 56 181 123 162 -1
567 0 56 181 124 161 -1
568 0 56 181 125 160 6569
569 0 56 181 126 159 -1
570 0 57 97 19 49 7304
571 0 57 98 19 48 7301
572 0 57 97 18 47 -1
573 0 57 97 19 46 7309
574 0 57 96 20 47 -1
575 0 57 97 21 47 -1
576 0 57 98 21 47 7306
577 0 57 99 21 48 7303
578 0 57 100 22 48 -1
579 0 57 100 23 49 -1
580 0 58 171 87 64 -1
581 0 58 170 86 64 -1
582 0 58 170 85 64 -1
583 0 58 169 86 63 9728
584 0 58 168 87 64 9727
585 0 58 167 88 64 -1
586 0 58 168 88 63 9724
587 0 58 167 89 62 9720
588 0 58 167 90 61 9721
589 0 58 167 91 61 9723
590 0 59 123 119 78 9931
591 0 59 124 119 78 -1
592 0 59 124 119 77 -1
593 0 59 123 118 78 -1
594 0 59 122 119 77 5747
595 0 59 121 119 78 5746
596 0 59 122 118 79 5744
597 0 59 122 117 80 9938
598 0 59 122 116 79 5742
599 0 59 123 116 80 -1
600 0 60 28 75 164 7061
601 0 60 28 75 165 7060
602 0 60 29 76 166 -1
603 0 60 29 75 166 -1
604 0 60 28 74 167 7064
605 0 60 28 73 168 -1
606 0 60 28 72 167 7068
607 0 60 27 71 167 6972
608 0 60 28 70 167 -1
609 0 60 27 69 166 6974
610 0 61 95 159 114 -1
611 0 61 95 159 113 -1
612 0 61 94 160 113 -1
613 0 61 93 161 113 -1
614 0 61 94 162 112 -1
615 0 61 94 163 113 6162
616 0 61 93 164 112 6166
617 0 61 92 165 112 6164
618 0 61 93 165 111 6165
619 0 61 94 165 110 6168
620 0 62 140 131 168 8663
621 0 62 141 132 169 8666
622 0 62 140 131 169 8661
623 0 62 141 130 168 8668
624 0 62 142 129 168 9505
625 0 62 142 129 167 9501
626 0 62 142 130 167 -1
627 0 62 143 130 168 9500
628 0 62 144 129 167 -1
629 0 62 143 128 166 9502
630 0 63 198 181 41 9600
631 0 63 198 181 40 9601
632 0 63 199 182 40 9603
633 0 63 199 182 41 9602
634 0 63 0 183 41 9605
635 0 63 0 183 40 9604
636 0 63 1 182 41 -1
637 0 63 0 182 40 -1
638 0 63 0 182 39 9608
639 0 63 0 183 38 -1
640 0 64 85 116 37 6941
641 0 64 85 117 38 -1
642 0 64 86 116 39 6943
643 0 64 87 116 38 -1
644 0 64 87 117 37 6944
645 0 64 86 117 38 6947
646 0 64 85 117 37 6948
647 0 64 86 118 36 6946
648 0 64 87 119 35 -1
649 0 64 88 120 34 -1
650 0 65 94 182 149 -1
651 0 65 94 181 150 -1
652 0 65 93 180 149 8908
653 0 65 92 179 150 8904
654 0 65 92 178 150 8905
655 0 65 93 177 151 -1
656 0 65 93 176 151 8903
657 0 65 94 176 150 8902
658 0 65 94 176 149 8901
659 0 65 93 176 148 8900
660 0 66 183 108 107 8406
661 0 66 184 107 108 -1
662 0 66 185 106 107 -1
663 0 66 186 106 108 -1
664 0 66 186 107 108 8409
665 0 66 185 108 109 8407
666 0 66 184 107 110 8405
667 0 66 183 106 111 -1
668 0 66 184 105 110 8403
669 0 66 184 106 109 8404
670 0 67 110 72 60 5711
671 0 67 109 73 61 5714
672 0 67 110 73 62 -1
673 0 67 111 73 63 -1
674 0 67 110 72 62 5715
675 0 67 110 71 62 -1
676 0 67 111 70 61 -1
677 0 67 112 71 60 5710
678 0 67 111 72 59 5713
679 0 67 111 71 60 -1
680 0 68 119 29 5 6856
681 0 68 118 30 5 6851
682 0 68 119 31 4 6852
683 0 68 118 30 3 6858
684 0 68 118 29 4 6857
685 0 68 119 28 5 -1
686 0 68 120 29 5 -1
687 0 68 120 30 5 -1
688 0 68 120 31 4 6855
689 0 68 120 30 3 6859
690 0 69 123 92 32 -1
691 0 69 122 93 32 7632
692 0 69 121 92 32 7635
693 0 69 121 92 31 7885
694 0 69 120 91 31 7881
695 0 69 119 92 30 7638
696 0 69 118 93 31 7639
697 0 69 119 92 32 7637
698 0 69 120 93 31 -1
699 0 69 120 92 32 -1
700 0 70 35 56 61 -1
701 0 70 35 55 60 9497
702 0 70 36 54 59 -1
703 0 70 35 54 60 9499
704 0 70 34 53 60 9493
705 0 70 33 53 60 9491
706 0 70 32 53 61 9496
707 0 70 33 54 62 9495
708 0 70 34 55 63 -1
709 0 70 33 54 63 9494
710 0 71 103 86 22 7742
711 0 71 103 87 21 -1
712 0 71 103 87 20 -1
713 0 71 104 87 21 -1
714 0 71 103 86 21 7741
715 0 71 103 87 22 -1
716 0 71 104 86 21 7743
717 0 71 104 85 20 -1
718 0 71 105 84 19 -1
719 0 71 105 83 20 7740
720 0 72 47 158 109 5839
721 0 72 47 159 108 5909
722 0 72 48 159 109 5908
723 0 72 48 158 110 5907
724 0 72 48 159 111 -1
725 0 72 47 159 112 5903
726 0 72 47 160 111 5902
727 0 72 48 160 111 5900
728 0 72 49 161 110 5838
729 0 72 48 162 110 5832
730 0 73 158 96 117 -1
731 0 73 159 97 117 6482
732 0 73 160 98 116 6481
733 0 73 159 99 117 6488
734 0 73 160 100 116 6485
735 0 73 161 101 117 -1
736 0 73 161 102 118 -1
737 0 73 162 102 117 8798
738 0 73 163 103 116 8794
739 0 73 164 103 116 5271
740 0 74 50 81 151 5043
741 0 74 50 80 151 5047
742 0 74 51 80 151 5042
743 0 74 52 79 152 5049
744 0 74 51 78 152 5045
745 0 74 51 79 153 5046
746 0 74 52 79 153 -1
747 0 74 52 79 154 -1
748 0 74 53 79 153 -1
749 0 74 53 80 152 -1
750 0 75 113 31 94 9695
751 0 75 112 32 94 9694
752 0 75 111 31 94 9696
753 0 75 112 30 95 -1
754 0 75 111 29 94 9697
755 0 75 110 29 95 9698
756 0 75 110 29 96 -1
757 0 75 109 29 97 -1
758 0 75 110 28 96 -1
759 0 75 110 29 97 -1
760 0 76 88 117 34 -1
761 0 76 88 117 35 6945
762 0 76 89 117 36 -1
763 0 76 90 118 35 7563
764 0 76 91 118 34 7560
765 0 76 91 119 35 7561
766 0 76 90 120 35 -1
767 0 76 90 119 35 7569
768 0 76 90 119 36 7567
769 0 76 90 119 37 7565
770 0 77 166 121 47 5170
771 0 77 166 120 48 5172
772 0 77 167 121 49 -1
773 0 77 166 121 49 5173
774 0 77 165 122 50 -1
775 0 77 166 122 50 -1
776 0 77 167 122 51 5175
777 0 77 168 122 50 5176
778 0 77 169 122 49 5179
779 0 77 169 121 49 -1
780 0 78 137 194 154 6241
781 0 78 137 193 155 6242
782 0 78 137 192 154 -1
783 0 78 137 192 153 6244
784 0 78 138 191 153 -1
785 0 78 138 190 154 6245
786 0 78 137 189 155 -1
787 0 78 136 189 156 -1
788 0 78 135 188 157 -1
789 0 78 134 187 156 -1
790 0 79 90 134 13 5036
791 0 79 90 135 13 -1
792 0 79 91 136 13 5035
793 0 79 92 136 13 -1
794 0 79 91 136 12 5034
795 0 79 90 137 11 -1
796 0 79 90 138 12 5031
797 0 79 90 139 13 -1
798 0 79 91 138 14 5032
799 0 79 92 139 13 -1
800 0 80 132 69 96 7088
801 0 80 132 69 95 7087
802 0 80 132 70 95 7083
803 0 80 132 70 94 7080
804 0 80 133 70 93 7084
805 0 80 132 71 92 7082
806 0 80 131 72 93 -1
807 0 80 131 71 93 -1
808 0 80 130 70 92 -1
809 0 80 131 69 93 7081
810 0 81 73 131 139 7023
811 0 81 73 132 140 7022
812 0 81 74 132 139 7024
813 0 81 73 133 139 7028
814 0 81 74 134 140 7029
815 0 81 73 134 140 -1
816 0 81 73 135 139 7027
817 0 81 73 135 138 -1
818 0 81 74 136 138 7026
819 0 81 74 135 139 -1
820 0 82 75 3 71 -1
821 0 82 75 4 70 9963
822 0 82 75 3 69 9960
823 0 82 76 3 68 9962
824 0 82 75 3 68 9965
825 0 82 75 4 67 9966
826 0 82 75 4 68 9964
827 0 82 74 5 67 -1
828 0 82 75 5 68 -1
829 0 82 76 5 68 9968
830 0 83 34 157 108 -1
831 0 83 33 158 107 -1
832 0 83 33 157 106 -1
833 0 83 32 156 105 -1
834 0 83 33 155 105 -1
835 0 83 34 155 105 -1
836 0 83 35 155 106 -1
837 0 83 36 154 107 -1
838 0 83 35 153 106 -1
839 0 83 34 154 106 -1
840 0 84 24 25 134 -1
841 0 84 24 25 135 7591
842 0 84 23 26 136 7599
843 0 84 24 25 136 -1
844 0 84 23 24 137 -1
845 0 84 22 24 137 -1
846 0 84 23 25 137 7595
847 0 84 23 26 137 7597
848 0 84 23 27 136 7594
849 0 84 24 27 137 -1
850 0 85 190 169 155 7148
851 0 85 191 170 156 7147
852 0 85 192 169 155 -1
853 0 85 191 168 155 7149
854 0 85 192 167 156 7141
855 0 85 192 166 156 7140
856 0 85 191 165 155 -1
857 0 85 190 165 154 -1
858 0 85 191 166 155 -1
859 0 85 192 165 155 -1
860 0 86 16 124 34 -1
861 0 86 17 123 35 8980
862 0 86 18 122 36 7653
863 0 86 19 121 37 7650
864 0 86 18 121 37 7651
865 0 86 19 121 38 -1
866 0 86 19 122 37 7652
867 0 86 19 123 36 7657
868 0 86 19 124 37 -1
869 0 86 19 125 37 -1
870 0 87 92 117 44 -1
871 0 87 93 118 44 -1
872 0 87 93 119 43 7626
873 0 87 93 120 44 7624
874 0 87 92 121 45 -1
875 0 87 92 122 44 -1
876 0 87 91 121 43 7620
877 0 87 92 121 43 7622
878 0 87 93 121 44 7628
879 0 87 92 122 43 -1
880 0 88 132 95 134 -1
881 0 88 131 95 134 -1
882 0 88 131 96 133 6254
883 0 88 132 96 134 6255
884 0 88 131 97 135 6258
885 0 88 132 97 134 6256
886 0 88 132 96 133 6259
887 0 88 131 95 132 -1
888 0 88 131 95 131 6251
889 0 88 132 96 132 -1
890 0 89 167 171 95 8764
891 0 89 168 171 96 8767
892 0 89 169 170 97 8781
893 0 89 168 169 97 -1
894 0 89 169 170 98 8763
895 0 89 170 169 98 5887
896 0 89 171 170 97 8768
897 0 89 170 170 98 5885
898 0 89 170 170 99 5889
899 0 89 171 171 99 8787
900 0 90 18 181 162 -1
901 0 90 17 181 162 -1
902 0 90 18 180 162 -1
903 0 90 19 180 161 5334
904 0 90 19 180 162 5337
905 0 90 19 181 163 5336
906 0 90 20 182 163 -1
907 0 90 19 183 162 5331
908 0 90 20 182 161 5338
909 0 90 20 181 160 -1
910 0 91 19 192 69 6630
911 0 91 19 193 69 -1
912 0 91 20 194 68 -1
913 0 91 21 194 68 6639
914 0 91 22 193 68 8291
915 0 91 23 192 68 8293
916 0 91 23 192 67 8296
917 0 91 24 193 68 -1
918 0 91 24 194 67 8294
919 0 91 23 195 68 -1
920 0 92 34 105 37 9200
921 0 92 35 106 37 -1
922 0 92 35 107 37 -1
923 0 92 35 108 38 -1
924 0 92 36 107 39 -1
925 0 92 36 106 40 -1
926 0 92 35 105 40 9203
927 0 92 34 104 39 9206
928 0 92 33 105 40 9208
929 0 92 32 105 39 9207
930 0 93 13 111 65 -1
931 0 93 13 110 66 9621
932 0 93 12 111 65 7994
933 0 93 12 111 64 7991
934 0 93 12 112 63 7992
935 0 93 13 111 64 7993
936 0 93 14 111 64 -1
937 0 93 14 111 65 9620
938 0 93 15 112 66 9624
939 0 93 15 111 67 9622
940 0 94 130 153 182 6908
941 0 94 129 152 182 -1
942 0 94 128 152 182 -1
943 0 94 129 151 183 6907
944 0 94 129 150 184 6900
945 0 94 128 150 184 6901
946 0 94 129 150 183 6906
947 0 94 130 149 184 6902
948 0 94 131 148 184 6904
949 0 94 130 148 183 6903
950 0 95 134 13 152 -1
951 0 95 134 12 152 9291
952 0 95 133 13 152 9297
953 0 95 134 14 151 9296
954 0 95 134 13 150 9293
955 0 95 133 12 150 9295
956 0 95 134 11 150 9298
957 0 95 135 10 150 9299
958 0 95 135 11 150 -1
959 0 95 136 12 150 9292
960 0 96 187 105 139 5568
961 0 96 186 104 138 5567
962 0 96 187 104 137 5561
963 0 96 186 105 138 5569
964 0 96 187 106 138 -1
965 0 96 188 105 139 -1
966 0 96 188 106 138 5566
967 0 96 187 106 137 -1
968 0 96 187 105 137 5560
969 0 96 187 105 136 5562
970 0 97 185 157 131 -1
971 0 97 184 156 132 9827
972 0 97 184 155 133 9826
973 0 97 183 156 132 9822
974 0 97 183 156 131 9825
975 0 97 182 155 131 9823
976 0 97 183 156 130 9824
977 0 97 184 157 130 9828
978 0 97 184 158 129 9829
979 0 97 185 157 128 7056
980 0 98 176 70 59 6551
981 0 98 177 71 59 6554
982 0 98 177 70 60 6553
983 0 98 176 71 59 -1
984 0 98 175 70 58 -1
985 0 98 176 69 57 7348
986 0 98 177 69 57 6550
987 0 98 178 70 56 -1
988 0 98 178 69 55 7347
989 0 98 178 68 56 7349
990 0 99 77 107 86 -1
991 0 99 76 107 87 -1
992 0 99 76 106 86 -1
993 0 99 75 107 87 -1
994 0 99 75 108 86 -1
995 0 99 74 109 85 8495
996 0 99 73 108 86 -1
997 0 99 73 107 85 8498
998 0 99 73 107 84 8496
999 0 99 74 107 84 8492
1000 0 100 42 148 111 -1
1001 0 100 43 147 110 -1
1002 0 100 44 146 109 9746
1003 0 100 45 146 109 9745
1004 0 100 46 145 110 -1
1005 0 100 47 145 109 9749
1006 0 100 46 145 108 9748
1007 0 100 45 145 107 9747
1008 0 100 46 146 108 9743
1009 0 100 45 147 109 9741
1010 0 101 138 70 167 -1
1011 0 101 137 71 168 8502
1012 0 101 136 71 168 8503
1013 0 101 137 72 169 -1
1014 0 101 137 71 169 8504
1015 0 101 137 70 168 -1
1016 0 101 137 69 167 -1
1017 0 101 136 69 167 8506
1018 0 101 137 68 168 8509
1019 0 101 138 67 169 -1
1020 0 102 173 64 51 8679
1021 0 102 174 65 50 7535
1022 0 102 173 65 50 -1
1023 0 102 172 64 49 -1
1024 0 102 171 63 50 8675
1025 0 102 172 63 51 8674
1026 0 102 171 64 52 8676
1027 0 102 170 64 52 -1
1028 0 102 169 63 51 8671
1029 0 102 169 64 50 8673
1030 0 103 82 35 120 5457
1031 0 103 82 35 119 5456
1032 0 103 81 35 119 -1
1033 0 103 81 36 120 5458
1034 0 103 82 37 120 5455
1035 0 103 81 36 121 -1
1036 0 103 80 37 121 -1
1037 0 103 81 37 122 5454
1038 0 103 81 38 123 -1
1039 0 103 82 39 124 -1
1040 0 104 23 74 12 -1
1041 0 104 22 74 11 7037
1042 0 104 21 73 11 7039
1043 0 104 20 74 11 -1
1044 0 104 20 75 10 7035
1045 0 104 19 76 11 7031
1046 0 104 20 75 12 7032
1047 0 104 20 76 11 -1
1048 0 104 19 75 12 7034
1049 0 104 19 74 13 -1
1050 0 105 144 102 75 9524
1051 0 105 145 102 75 9528
1052 0 105 146 103 74 -1
1053 0 105 146 102 75 -1
1054 0 105 147 103 76 -1
1055 0 105 148 104 75 -1
1056 0 105 147 103 74 9527
1057 0 105 147 104 74 7580
1058 0 105 146 105 73 7581
1059 0 105 146 106 74 -1
1060 0 106 126 159 12 6191
1061 0 106 126 160 11 -1
1062 0 106 125 160 11 -1
1063 0 106 125 159 12 -1
1064 0 106 124 158 13 6194
1065 0 106 124 158 12 -1
1066 0 106 123 158 11 6195
1067 0 106 124 158 10 6192
1068 0 106 123 159 10 -1
1069 0 106 123 159 11 6197
1070 0 107 82 105 3 -1
1071 0 107 83 104 2 8558
1072 0 107 82 103 3 8577
1073 0 107 82 102 4 -1
1074 0 107 83 101 4 8574
1075 0 107 82 100 3 8572
1076 0 107 83 100 2 8570
1077 0 107 82 101 2 -1
1078 0 107 82 101 3 -1
1079 0 107 81 100 2 -1
1080 0 108 14 45 79 -1
1081 0 108 14 46 80 9573
1082 0 108 15 47 81 -1
1083 0 108 14 47 80 -1
1084 0 108 14 46 81 9571
1085 0 108 15 46 82 9572
1086 0 108 15 46 83 -1
1087 0 108 14 47 84 -1
1088 0 108 15 48 85 -1
1089 0 108 14 48 85 9579
1090 0 109 94 110 165 6790
1091 0 109 93 110 165 6794
1092 0 109 92 110 164 6796
1093 0 109 92 110 163 -1
1094 0 109 92 109 163 6795
1095 0 109 92 108 162 6797
1096 0 109 93 109 162 -1
1097 0 109 94 108 163 6799
1098 0 109 94 109 164 6791
1099 0 109 94 110 164 -1
1100 0 110 183 20 12 -1
1101 0 110 182 21 12 8373
1102 0 110 182 21 11 8375
1103 0 110 181 22 12 -1
1104 0 110 182 23 13 8378
1105 0 110 183 22 12 8376
1106 0 110 183 22 11 -1
1107 0 110 183 23 11 -1
1108 0 110 183 24 12 -1
1109 0 110 182 24 13 8379
1110 0 111 37 25 112 -1
1111 0 111 38 26 111 -1
1112 0 111 39 25 110 6640
1113 0 111 40 26 109 6641
1114 0 111 41 27 109 6645
1115 0 111 41 26 108 6643
1116 0 111 40 27 109 6646
1117 0 111 39 28 110 6648
1118 0 111 39 27 111 6649
1119 0 111 40 28 111 6647
1120 0 112 58 114 28 9106
1121 0 112 57 114 27 -1
1122 0 112 56 113 26 9108
1123 0 112 55 113 27 9107
1124 0 112 56 112 27 9109
1125 0 112 56 113 28 -1
1126 0 112 56 113 29 9101
1127 0 112 57 114 28 -1
1128 0 112 57 115 27 9104
1129 0 112 57 115 28 -1
1130 0 113 56 161 113 -1
1131 0 113 57 161 112 -1
1132 0 113 56 162 113 -1
1133 0 113 55 161 114 -1
1134 0 113 55 160 115 6004
1135 0 113 54 159 115 6003
1136 0 113 55 159 114 6007
1137 0 113 54 159 113 6008
1138 0 113 54 158 112 6009
1139 0 113 55 157 113 -1
1140 0 114 61 158 7 8077
1141 0 114 62 158 8 8078
1142 0 114 63 157 8 8311
1143 0 114 63 156 9 8073
1144 0 114 64 157 8 8318
1145 0 114 65 158 8 8312
1146 0 114 65 157 7 8310
1147 0 114 64 156 7 -1
1148 0 114 65 156 8 -1
1149 0 114 66 157 9 -1
1150 0 115 148 32 21 9976
1151 0 115 148 31 20 -1
1152 0 115 149 32 20 9974
1153 0 115 150 33 20 9978
1154 0 115 151 33 20 -1
1155 0 115 151 33 21 9977
1156 0 115 151 34 20 -1
1157 0 115 150 33 21 9975
1158 0 115 151 33 22 9972
1159 0 115 151 32 23 -1
1160 0 116 25 74 161 -1
1161 0 116 25 75 161 7972
1162 0 116 26 74 161 5533
1163 0 116 26 75 162 5532
1164 0 116 25 74 163 7971
1165 0 116 24 73 164 7974
1166 0 116 23 73 164 6979
1167 0 116 22 72 164 7978
1168 0 116 22 71 164 7977
1169 0 116 23 71 163 7975
1170 0 117 115 182 193 6870
1171 0 117 114 182 193 -1
1172 0 117 113 183 194 6454
1173 0 117 113 182 193 6874
1174 0 117 113 182 194 -1
1175 0 117 113 182 195 6875
1176 0 117 114 181 196 6872
1177 0 117 114 180 195 -1
1178 0 117 115 181 196 -1
1179 0 117 115 182 197 -1
1180 0 118 104 47 22 7876
1181 0 118 105 46 22 -1
1182 0 118 104 46 23 7877
1183 0 118 103 45 22 7729
1184 0 118 104 44 21 7872
1185 0 118 104 44 22 -1
1186 0 118 103 43 22 7873
1187 0 118 102 43 22 7727
1188 0 118 101 42 21 8008
1189 0 118 102 43 20 8009
1190 0 119 193 13 29 6705
1191 0 119 192 13 30 -1
1192 0 119 191 13 30 -1
1193 0 119 192 14 29 -1
1194 0 119 191 13 28 6700
1195 0 119 190 14 29 6703
1196 0 119 191 15 28 6702
1197 0 119 192 15 27 6709
1198 0 119 193 15 27 6708
1199 0 119 193 14 28 -1
1200 0 120 147 8 103 -1
1201 0 120 147 7 103 8459
1202 0 120 147 6 104 -1
1203 0 120 146 6 105 8458
1204 0 120 146 6 104 8456
1205 0 120 146 5 105 -1
1206 0 120 147 4 105 8457
1207 0 120 148 5 104 8455
1208 0 120 149 4 104 -1
1209 0 120 148 3 104 8454
1210 0 121 75 81 43 -1
1211 0 121 74 81 42 5849
1212 0 121 74 82 41 -1
1213 0 121 73 81 42 5842
1214 0 121 72 80 41 5841
1215 0 121 72 80 40 5844
1216 0 121 71 80 40 5847
1217 0 121 72 79 41 -1
1218 0 121 72 78 40 -1
1219 0 121 73 79 41 5840
1220 0 122 66 55 173 8196
1221 0 122 67 56 172 8195
1222 0 122 67 55 173 8198
1223 0 122 66 56 174 8199
1224 0 122 66 56 173 -1
1225 0 122 67 57 172 -1
1226 0 122 68 58 172 8193
1227 0 122 68 57 172 8191
1228 0 122 68 56 171 8194
1229 0 122 67 55 171 -1
1230 0 123 171 193 91 -1
1231 0 123 170 192 90 9685
1232 0 123 171 193 89 9684
1233 0 123 172 194 88 -1
1234 0 123 171 195 87 -1
1235 0 123 171 194 86 9682
1236 0 123 170 193 86 9681
1237 0 123 169 194 86 -1
1238 0 123 168 194 87 -1
1239 0 123 169 193 87 9683
1240 0 124 177 67 62 -1
1241 0 124 176 68 61 6558
1242 0 124 177 69 61 6559
1243 0 124 178 68 60 6552
1244 0 124 178 69 61 6557
1245 0 124 177 70 62 -1
1246 0 124 177 69 63 -1
1247 0 124 176 70 62 -1
1248 0 124 175 70 63 -1
1249 0 124 175 69 62 -1
1250 0 125 170 74 94 5812
1251 0 125 171 73 95 5813
1252 0 125 171 74 95 5811
1253 0 125 172 75 95 5815
1254 0 125 171 76 95 -1
1255 0 125 171 76 94 -1
1256 0 125 171 77 94 5818
1257 0 125 171 78 94 -1