ITEM: TIMESTEP
0
ITEM: NUMBER OF ATOMS
10000
ITEM: BOX BOUNDS pp pp pp
0 200
0 200
0 200
ITEM: ATOMS id type mol x y z bP
0 0 0 136 44 92 -1
1 0 0 137 45 92 9468
2 0 0 138 45 92 -1
3 0 0 139 45 93 -1
4 0 0 140 45 92 -1
5 0 0 139 44 92 -1
6 0 0 138 43 93 -1
7 0 0 137 42 92 -1
8 0 0 138 42 92 9466
9 0 0 137 43 92 9464
10 0 1 71 102 178 -1
11 0 1 72 103 177 9387
12 0 1 71 104 176 9380
13 0 1 70 105 177 -1
14 0 1 69 104 176 9383
15 0 1 68 105 176 -1
16 0 1 68 106 176 -1
17 0 1 69 105 175 9381
18 0 1 68 106 174 -1
19 0 1 68 106 173 -1
20 0 2 118 189 32 -1
21 0 2 118 188 33 -1
22 0 2 119 187 32 5100
23 0 2 120 186 31 -1
24 0 2 121 186 31 -1
25 0 2 120 185 31 5101
26 0 2 119 186 31 5102
27 0 2 120 186 30 5105
28 0 2 119 187 29 5107
29 0 2 118 187 28 5106
30 0 3 132 136 182 5910
31 0 3 133 135 181 8023
32 0 3 132 136 181 -1
33 0 3 132 135 181 5913
34 0 3 133 134 182 5915
35 0 3 134 135 183 5916
36 0 3 133 136 184 -1
37 0 3 134 137 183 5911
38 0 3 134 136 182 5914
39 0 3 133 136 181 5912
40 0 4 153 29 134 -1
41 0 4 152 28 133 9266
42 0 4 152 29 133 -1
43 0 4 151 30 133 -1
44 0 4 150 29 133 9262
45 0 4 151 28 134 9264
46 0 4 152 28 135 9267
47 0 4 151 28 136 -1
48 0 4 151 29 136 9263
49 0 4 151 28 135 9268
50 0 5 85 108 29 -1
51 0 5 86 107 28 -1
52 0 5 87 108 27 -1
53 0 5 88 109 28 6472
54 0 5 88 108 29 6471
55 0 5 87 109 28 6470
56 0 5 87 108 28 -1
57 0 5 87 107 29 -1
58 0 5 86 106 30 7739
59 0 5 87 107 31 -1
60 0 6 49 24 103 -1
61 0 6 48 25 104 6417
62 0 6 49 25 105 6416
63 0 6 48 25 105 6413
64 0 6 47 26 104 -1
65 0 6 48 27 105 -1
66 0 6 48 26 106 6410
67 0 6 47 26 106 6415
68 0 6 48 26 107 6412
69 0 6 47 26 108 6411
70 0 7 54 83 64 -1
71 0 7 53 83 64 5838
72 0 7 54 84 64 5839
73 0 7 55 85 65 -1
74 0 7 55 84 64 5834
75 0 7 56 83 65 5830
76 0 7 55 83 65 5831
77 0 7 54 83 66 5837
78 0 7 55 83 67 -1
79 0 7 56 84 68 5832
80 0 8 153 177 43 7374
81 0 8 152 178 44 7372
82 0 8 152 177 45 7373
83 0 8 152 176 44 -1
84 0 8 151 177 44 -1
85 0 8 150 177 45 7370
86 0 8 150 177 46 7451
87 0 8 150 178 45 -1
88 0 8 150 179 46 7452
89 0 8 149 178 46 -1
90 0 9 102 166 91 -1
91 0 9 103 167 90 7387
92 0 9 104 168 89 7385
93 0 9 105 169 89 7389
94 0 9 105 169 90 -1
95 0 9 104 168 90 -1
96 0 9 104 169 91 7380
97 0 9 103 170 92 -1
98 0 9 102 171 91 -1
99 0 9 101 170 91 7384
100 0 10 31 2 63 5353
101 0 10 30 2 63 -1
102 0 10 30 2 64 7555
103 0 10 29 2 64 5359
104 0 10 28 2 65 5350
105 0 10 27 3 65 -1
106 0 10 27 4 65 -1
107 0 10 26 3 64 -1
108 0 10 27 2 65 -1
109 0 10 27 1 64 -1
110 0 11 58 76 195 5965
111 0 11 59 77 194 5962
112 0 11 59 77 195 5964
113 0 11 58 78 194 5966
114 0 11 58 79 195 -1
115 0 11 58 80 195 -1
116 0 11 57 79 195 -1
117 0 11 56 79 196 5968
118 0 11 55 79 197 -1
119 0 11 56 78 197 5967
120 0 12 195 165 29 -1
121 0 12 195 166 30 8972
122 0 12 194 167 30 8973
123 0 12 194 166 31 -1
124 0 12 193 165 31 8970
125 0 12 192 164 32 -1
126 0 12 192 164 33 8977
127 0 12 193 163 33 -1
128 0 12 194 164 33 -1
129 0 12 195 164 32 -1
130 0 13 134 52 0 7235
131 0 13 135 53 199 7237
132 0 13 134 52 198 7236
133 0 13 135 51 198 7583
134 0 13 134 50 197 7587
135 0 13 133 49 198 7588
136 0 13 134 49 199 7585
137 0 13 135 49 198 -1
138 0 13 136 48 199 7584
139 0 13 136 47 0 -1
140 0 14 9 57 180 5270
141 0 14 10 58 181 -1
142 0 14 9 59 181 5271
143 0 14 10 58 180 5956
144 0 14 9 58 180 5272
145 0 14 8 59 179 5959
146 0 14 9 60 179 5955
147 0 14 10 59 180 5273
148 0 14 11 59 179 5275
149 0 14 12 58 179 -1
150 0 15 188 7 128 5898
151 0 15 187 6 128 5897
152 0 15 187 7 128 5893
153 0 15 186 6 129 5896
154 0 15 185 6 129 -1
155 0 15 186 5 130 5891
156 0 15 187 4 130 5892
157 0 15 188 3 129 -1
158 0 15 188 4 130 -1
159 0 15 187 4 131 -1
160 0 16 116 41 76 5763
161 0 16 115 41 77 5766
162 0 16 116 40 77 -1
163 0 16 115 40 78 5761
164 0 16 116 39 79 -1
165 0 16 117 38 78 -1
166 0 16 116 39 78 -1
167 0 16 115 40 79 -1
168 0 16 116 41 80 -1
169 0 16 115 42 80 5767
170 0 17 96 51 73 -1
171 0 17 97 52 74 -1
172 0 17 97 53 75 -1
173 0 17 98 54 76 9612
174 0 17 99 55 75 8184
175 0 17 98 56 75 9614
176 0 17 97 56 75 9615
177 0 17 97 55 75 -1
178 0 17 96 55 75 9618
179 0 17 95 56 75 9617
180 0 18 98 52 116 -1
181 0 18 97 51 117 9001
182 0 18 96 52 118 9005
183 0 18 97 51 119 -1
184 0 18 97 50 120 9000
185 0 18 96 49 119 9004
186 0 18 95 50 120 9006
187 0 18 96 50 119 9007
188 0 18 95 51 118 9008
189 0 18 96 52 119 -1
190 0 19 129 20 173 -1
191 0 19 128 19 174 5556
192 0 19 129 18 175 -1
193 0 19 130 19 175 5977
194 0 19 131 19 176 5976
195 0 19 131 20 175 5972
196 0 19 130 20 176 5978
197 0 19 129 20 175 5554
198 0 19 129 19 176 -1
199 0 19 128 20 177 -1
200 0 20 169 1 68 5512
201 0 20 169 0 67 5514
202 0 20 168 0 68 5513
203 0 20 168 0 69 -1
204 0 20 168 0 70 -1
205 0 20 168 199 71 5518
206 0 20 167 0 72 -1
207 0 20 167 0 71 -1
208 0 20 166 0 70 -1
209 0 20 167 199 70 5517
210 0 21 25 16 32 9802
211 0 21 24 15 33 9803
212 0 21 23 15 34 -1
213 0 21 23 15 33 -1
214 0 21 24 14 34 -1
215 0 21 24 14 35 -1
216 0 21 24 13 34 9808
217 0 21 25 14 33 9805
218 0 21 26 14 33 -1
219 0 21 26 13 34 -1
220 0 22 117 8 163 -1
221 0 22 118 9 164 -1
222 0 22 119 10 165 9286
223 0 22 119 10 164 -1
224 0 22 118 11 163 9289
225 0 22 118 12 164 9288
226 0 22 118 13 163 6987
227 0 22 118 13 164 6988
228 0 22 118 12 165 -1
229 0 22 119 11 166 -1
230 0 23 1 168 180 -1
231 0 23 1 168 179 9487
232 0 23 2 167 180 -1
233 0 23 2 166 180 -1
234 0 23 2 166 179 9485
235 0 23 1 167 178 9488
236 0 23 0 168 179 9482
237 0 23 0 169 178 -1
238 0 23 1 170 178 -1
239 0 23 1 171 177 -1
240 0 24 109 92 120 5903
241 0 24 108 92 121 8692
242 0 24 108 93 121 -1
243 0 24 109 93 120 5904
244 0 24 109 92 121 8695
245 0 24 108 93 122 8694
246 0 24 109 93 122 -1
247 0 24 108 92 123 8693
248 0 24 108 92 124 -1
249 0 24 108 93 124 -1
250 0 25 61 9 199 -1
251 0 25 62 8 0 7512
252 0 25 63 9 1 7516
253 0 25 63 10 2 7515
254 0 25 64 9 2 -1
255 0 25 65 9 1 7510
256 0 25 65 9 2 7514
257 0 25 65 10 1 7518
258 0 25 65 11 0 -1
259 0 25 64 10 1 -1
260 0 26 20 94 116 -1
261 0 26 19 95 115 -1
262 0 26 19 96 116 -1
263 0 26 18 97 115 -1
264 0 26 19 97 116 7673
265 0 26 20 96 116 7671
266 0 26 21 96 116 7672
267 0 26 21 95 116 7675
268 0 26 21 94 115 7678
269 0 26 21 93 115 7677
270 0 27 69 115 177 -1
271 0 27 68 116 177 7902
272 0 27 69 117 177 -1
273 0 27 70 117 177 5603
274 0 27 71 117 176 -1
275 0 27 72 117 176 5602
276 0 27 72 117 175 5393
277 0 27 71 118 175 -1
278 0 27 70 118 174 5396
279 0 27 70 119 174 5395
280 0 28 159 182 177 5524
281 0 28 159 181 178 -1
282 0 28 159 180 179 -1
283 0 28 158 180 178 -1
284 0 28 159 180 177 -1
285 0 28 158 181 177 -1
286 0 28 157 182 178 -1
287 0 28 156 181 178 -1
288 0 28 156 182 179 -1
289 0 28 157 183 178 5520
290 0 29 49 175 43 -1
291 0 29 49 175 44 -1
292 0 29 49 176 44 -1
293 0 29 49 175 45 -1
294 0 29 50 175 46 9717
295 0 29 49 175 46 9716
296 0 29 50 176 47 9711
297 0 29 51 175 48 9719
298 0 29 51 174 49 -1
299 0 29 50 175 50 9712
300 0 30 192 38 116 -1
301 0 30 192 38 115 -1
302 0 30 191 38 114 -1
303 0 30 192 38 113 -1
304 0 30 192 37 112 9660
305 0 30 191 36 111 9666
306 0 30 191 35 111 9667
307 0 30 192 35 112 9665
308 0 30 192 34 111 9662
309 0 30 191 34 111 9661
310 0 31 99 17 67 7255
311 0 31 99 16 67 -1
312 0 31 98 17 68 7252
313 0 31 99 18 67 -1
314 0 31 100 17 68 7256
315 0 31 99 16 69 7251
316 0 31 99 17 70 -1
317 0 31 100 17 70 7250
318 0 31 101 17 70 7257
319 0 31 101 18 70 6598
320 0 32 128 150 138 7048
321 0 32 129 149 138 7049
322 0 32 128 148 138 -1
323 0 32 127 148 139 7046
324 0 32 126 149 140 7040
325 0 32 125 150 139 7047
326 0 32 124 149 138 7044
327 0 32 123 149 139 -1
328 0 32 122 150 139 -1
329 0 32 123 151 138 7041
330 0 33 104 48 24 -1
331 0 33 104 49 25 -1
332 0 33 104 49 24 -1
333 0 33 103 48 25 8681
334 0 33 102 48 24 8680
335 0 33 102 49 23 -1
336 0 33 103 48 22 8683
337 0 33 102 47 21 8689
338 0 33 101 48 21 8687
339 0 33 100 48 20 -1
340 0 34 10 50 151 -1
341 0 34 11 50 152 9749
342 0 34 10 49 153 -1
343 0 34 11 49 154 -1
344 0 34 11 50 153 9748
345 0 34 10 50 154 -1
346 0 34 11 51 155 9744
347 0 34 12 51 156 9743
348 0 34 13 51 155 9746
349 0 34 14 51 154 -1
350 0 35 190 36 13 -1
351 0 35 191 35 12 6067
352 0 35 191 35 13 -1
353 0 35 191 34 14 6060
354 0 35 192 33 13 6061
355 0 35 191 32 12 -1
356 0 35 190 33 11 6066
357 0 35 190 34 11 6068
358 0 35 189 33 12 -1
359 0 35 188 34 13 6065
360 0 36 119 161 146 8036
361 0 36 119 162 146 8032
362 0 36 118 162 146 -1
363 0 36 119 162 145 8030
364 0 36 119 161 144 -1
365 0 36 120 162 144 -1
366 0 36 121 163 145 -1
367 0 36 121 164 145 8031
368 0 36 120 164 144 -1
369 0 36 121 163 143 -1
370 0 37 0 90 30 -1
371 0 37 199 91 31 -1
372 0 37 0 91 31 9553
373 0 37 1 92 30 9551
374 0 37 1 93 31 9552
375 0 37 2 92 30 9554
376 0 37 1 93 29 9556
377 0 37 2 93 30 9559
378 0 37 1 93 30 -1
379 0 37 2 93 31 9555
380 0 38 41 179 190 -1
381 0 38 41 180 189 5545
382 0 38 42 180 190 5546
383 0 38 43 180 191 -1
384 0 38 44 180 191 -1
385 0 38 43 179 190 5547
386 0 38 43 179 189 5548
387 0 38 43 178 188 -1
388 0 38 44 178 188 -1
389 0 38 43 177 187 -1
390 0 39 136 109 120 -1
391 0 39 137 110 120 8194
392 0 39 137 110 119 -1
393 0 39 136 111 120 8195
394 0 39 135 112 121 8193
395 0 39 136 112 122 8196
396 0 39 137 113 123 -1
397 0 39 138 113 124 8199
398 0 39 139 112 123 8198
399 0 39 140 111 124 -1
400 0 40 79 101 118 -1
401 0 40 79 101 117 -1
402 0 40 80 100 118 -1
403 0 40 80 99 118 -1
404 0 40 80 98 118 6074
405 0 40 80 98 119 -1
406 0 40 79 99 119 -1
407 0 40 78 99 120 -1
408 0 40 79 99 120 -1
409 0 40 80 100 119 -1
410 0 41 2 113 27 -1
411 0 41 1 112 27 8272
412 0 41 0 112 26 8276
413 0 41 0 111 26 8275
414 0 41 1 111 25 -1
415 0 41 1 112 26 8274
416 0 41 2 113 25 -1
417 0 41 1 114 26 -1
418 0 41 1 114 27 8271
419 0 41 2 114 26 -1
420 0 42 137 57 63 -1
421 0 42 137 58 63 -1
422 0 42 136 57 63 -1
423 0 42 135 58 62 9936
424 0 42 136 59 63 9935
425 0 42 135 60 62 9938
426 0 42 136 60 63 9934
427 0 42 135 61 63 -1
428 0 42 134 62 63 -1
429 0 42 134 62 62 9939
430 0 43 62 121 104 -1
431 0 43 62 122 104 -1
432 0 43 63 123 104 7887
433 0 43 63 122 103 7880
434 0 43 64 123 102 7882
435 0 43 63 124 101 -1
436 0 43 62 125 100 7883
437 0 43 61 124 101 7888
438 0 43 61 125 100 -1
439 0 43 60 124 101 -1
440 0 44 11 59 178 -1
441 0 44 10 59 177 -1
442 0 44 9 60 178 5957
443 0 44 10 59 178 -1
444 0 44 10 60 177 -1
445 0 44 11 60 178 -1
446 0 44 12 60 178 5279
447 0 44 11 61 178 -1
448 0 44 11 62 179 5276
449 0 44 12 63 179 -1
450 0 45 137 163 146 -1
451 0 45 136 162 146 -1
452 0 45 136 162 147 -1
453 0 45 135 161 148 -1
454 0 45 135 162 148 -1
455 0 45 135 163 149 -1
456 0 45 134 164 149 -1
457 0 45 135 164 149 -1
458 0 45 135 165 149 -1
459 0 45 134 166 150 -1
460 0 46 132 50 1 7230
461 0 46 131 51 2 7231
462 0 46 131 51 3 7232
463 0 46 132 51 2 -1
464 0 46 133 51 3 -1
465 0 46 133 52 2 -1
466 0 46 132 53 1 7233
467 0 46 133 54 2 -1
468 0 46 134 54 1 7238
469 0 46 133 55 1 -1
470 0 47 33 179 127 -1
471 0 47 33 180 128 9727
472 0 47 32 180 127 -1
473 0 47 32 179 128 -1
474 0 47 32 178 127 -1
475 0 47 33 178 128 9729
476 0 47 34 179 129 -1
477 0 47 33 178 130 9726
478 0 47 34 177 131 -1
479 0 47 35 178 131 9724
480 0 48 58 174 99 5123
481 0 48 58 175 100 5120
482 0 48 58 174 101 5127
483 0 48 58 174 100 5122
484 0 48 58 175 101 5125
485 0 48 59 174 101 -1
486 0 48 59 173 100 5124
487 0 48 60 174 101 5121
488 0 48 61 173 102 -1
489 0 48 61 172 103 -1
490 0 49 20 153 106 -1
491 0 49 20 152 105 8243
492 0 49 20 151 105 8241
493 0 49 19 152 106 -1
494 0 49 19 153 107 -1
495 0 49 20 153 108 -1
496 0 49 21 152 107 8249
497 0 49 22 151 106 8242
498 0 49 23 152 105 -1
499 0 49 22 152 104 -1
500 0 50 155 114 118 -1
501 0 50 156 114 117 6572
502 0 50 157 115 116 -1
503 0 50 156 115 116 -1
504 0 50 157 116 117 -1
505 0 50 157 115 118 6571
506 0 50 158 116 119 6575
507 0 50 159 116 119 6576
508 0 50 158 115 120 6570
509 0 50 157 115 121 -1
510 0 51 178 70 179 9675
511 0 51 179 69 180 9674
512 0 51 178 68 181 -1
513 0 51 179 67 180 -1
514 0 51 179 68 181 9673
515 0 51 180 67 182 9670
516 0 51 179 67 182 -1
517 0 51 178 68 183 9672
518 0 51 179 67 183 9671
519 0 51 180 68 182 -1
520 0 52 95 131 128 5680
521 0 52 94 131 127 5681
522 0 52 93 131 127 -1
523 0 52 93 130 126 5684
524 0 52 92 130 127 5685
525 0 52 92 131 128 5683
526 0 52 93 132 127 -1
527 0 52 92 131 127 5682
528 0 52 93 132 128 -1
529 0 52 92 133 129 -1
530 0 53 180 103 55 -1
531 0 53 180 103 56 -1
532 0 53 181 103 57 -1
533 0 53 181 102 57 -1
534 0 53 180 101 56 6678
535 0 53 179 101 57 -1
536 0 53 178 100 56 -1
537 0 53 179 100 55 6679
538 0 53 180 100 55 6677
539 0 53 180 99 56 -1
540 0 54 113 192 44 -1
541 0 54 113 192 45 -1
542 0 54 112 191 45 -1
543 0 54 111 192 44 -1
544 0 54 110 193 44 -1
545 0 54 111 194 44 -1
546 0 54 112 195 45 9277
547 0 54 111 196 45 9276
548 0 54 111 195 45 9275
549 0 54 110 196 45 9273
550 0 55 63 131 41 -1
551 0 55 62 130 40 -1
552 0 55 63 130 40 -1
553 0 55 62 131 41 -1
554 0 55 61 132 42 6563
555 0 55 61 133 42 6562
556 0 55 60 132 41 -1
557 0 55 61 133 40 6565
558 0 55 61 134 41 6564
559 0 55 60 135 42 6560
560 0 56 111 68 185 7624
561 0 56 110 67 185 7628
562 0 56 111 66 184 7623
563 0 56 110 65 185 7621
564 0 56 109 65 186 -1
565 0 56 109 66 185 7626
566 0 56 110 65 186 -1
567 0 56 109 65 187 7627
568 0 56 108 66 188 -1
569 0 56 108 66 189 -1
570 0 57 60 169 27 5082
571 0 57 59 169 28 5080
572 0 57 59 170 28 5081
573 0 57 58 170 27 5087
574 0 57 57 169 26 -1
575 0 57 58 168 25 -1
576 0 57 59 169 26 5085
577 0 57 58 169 27 5086
578 0 57 59 168 28 5083
579 0 57 58 168 28 -1
580 0 58 127 21 61 6956
581 0 58 126 21 60 6955
582 0 58 126 20 60 -1
583 0 58 127 20 60 -1
584 0 58 128 19 60 -1
585 0 58 129 19 59 6958
586 0 58 130 20 59 6957
587 0 58 131 21 58 8947
588 0 58 130 22 57 -1
589 0 58 131 22 57 8949
590 0 59 31 79 99 -1
591 0 59 30 79 99 -1
592 0 59 31 79 100 -1
593 0 59 30 78 100 -1
594 0 59 29 78 101 7111
595 0 59 29 79 102 7118
596 0 59 30 80 102 7115
597 0 59 30 81 101 7110
598 0 59 30 82 102 7119
599 0 59 31 81 101 -1
600 0 60 136 87 158 -1
601 0 60 135 87 157 -1
602 0 60 135 88 156 -1
603 0 60 136 88 155 9762
604 0 60 136 88 154 9763
605 0 60 137 88 154 -1
606 0 60 138 89 154 6813
607 0 60 138 88 155 9765
608 0 60 139 87 154 9764
609 0 60 139 88 154 -1
610 0 61 135 96 125 -1
611 0 61 136 96 124 -1
612 0 61 137 96 124 8650
613 0 61 137 96 125 8655
614 0 61 138 97 125 8654
615 0 61 139 98 126 -1
616 0 61 140 97 125 8656
617 0 61 140 98 126 8657
618 0 61 141 97 127 8658
619 0 61 140 97 128 8653
620 0 62 86 4 173 -1
621 0 62 86 3 174 7541
622 0 62 87 2 175 -1
623 0 62 86 3 175 7543
624 0 62 87 4 176 -1
625 0 62 88 4 177 7546
626 0 62 89 4 176 -1
627 0 62 89 3 177 7545
628 0 62 88 2 176 7723
629 0 62 89 3 175 -1
630 0 63 137 52 103 7366
631 0 63 137 51 102 7362
632 0 63 136 52 102 7365
633 0 63 137 51 101 -1
634 0 63 137 52 100 7363
635 0 63 136 51 100 -1
636 0 63 135 50 101 -1
637 0 63 135 51 102 7364
638 0 63 135 52 102 7367
639 0 63 136 51 101 -1
640 0 64 132 86 120 9519
641 0 64 132 87 119 -1
642 0 64 133 87 120 9517
643 0 64 134 87 120 -1
644 0 64 133 87 121 -1
645 0 64 133 88 122 9518
646 0 64 132 89 122 9515
647 0 64 132 89 123 9514
648 0 64 131 89 124 9513
649 0 64 132 88 123 9516
650 0 65 58 170 176 -1
651 0 65 57 169 175 -1
652 0 65 57 168 176 -1
653 0 65 57 167 176 8096
654 0 65 57 168 177 8094
655 0 65 58 169 178 8093
656 0 65 58 168 178 8095
657 0 65 59 169 179 -1
658 0 65 60 169 178 8092
659 0 65 60 169 177 8090
660 0 66 51 102 12 5471
661 0 66 50 103 13 5474
662 0 66 51 104 12 -1
663 0 66 50 104 13 -1
664 0 66 50 105 14 5475
665 0 66 50 106 14 -1
666 0 66 49 105 14 -1
667 0 66 50 106 15 -1
668 0 66 49 105 16 -1
669 0 66 50 104 16 5477
670 0 67 54 123 105 -1
671 0 67 54 122 105 5590
672 0 67 54 122 106 -1
673 0 67 53 122 106 5591
674 0 67 52 123 105 5593
675 0 67 52 122 104 5594
676 0 67 51 121 105 5595
677 0 67 51 121 106 -1
678 0 67 51 120 106 -1
679 0 67 50 121 106 5597
680 0 68 139 126 85 -1
681 0 68 138 125 85 9520
682 0 68 137 124 84 9523
683 0 68 138 124 83 -1
684 0 68 139 125 84 9521
685 0 68 138 126 84 -1
686 0 68 137 126 84 9526
687 0 68 138 127 85 -1
688 0 68 139 127 86 -1
689 0 68 140 127 87 -1
690 0 69 6 157 150 -1
691 0 69 7 156 150 -1
692 0 69 6 156 151 -1
693 0 69 6 155 151 9040
694 0 69 5 155 150 -1
695 0 69 5 154 150 9042
696 0 69 5 153 150 -1
697 0 69 5 154 149 -1
698 0 69 6 153 149 6291
699 0 69 7 152 149 6290
700 0 70 194 71 38 -1
701 0 70 194 72 39 9505
702 0 70 193 73 39 -1
703 0 70 193 74 40 -1
704 0 70 193 75 40 9503
705 0 70 194 74 40 -1
706 0 70 195 73 39 -1
707 0 70 194 73 39 -1
708 0 70 194 74 38 9501
709 0 70 194 75 37 -1
710 0 71 166 50 30 -1
711 0 71 166 49 30 7957
712 0 71 167 49 31 7953
713 0 71 167 48 31 -1
714 0 71 168 47 31 7951
715 0 71 168 46 30 7952
716 0 71 167 47 30 7958
717 0 71 166 46 29 -1
718 0 71 165 47 29 -1
719 0 71 166 46 28 -1
720 0 72 28 136 35 -1
721 0 72 29 136 34 8621
722 0 72 29 135 33 8623
723 0 72 28 135 33 8620
724 0 72 28 134 32 8625
725 0 72 28 133 31 8624
726 0 72 27 133 32 8626
727 0 72 26 133 33 -1
728 0 72 25 132 33 -1
729 0 72 25 131 34 -1
730 0 73 152 41 128 6526
731 0 73 153 42 128 6527
732 0 73 152 43 128 6520
733 0 73 153 44 127 -1
734 0 73 153 45 126 -1
735 0 73 152 44 125 -1
736 0 73 152 43 126 6529
737 0 73 151 44 126 -1
738 0 73 150 44 127 -1
739 0 73 150 44 126 -1
740 0 74 180 72 168 9363
741 0 74 180 72 167 -1
742 0 74 179 72 168 -1
743 0 74 180 71 167 9362
744 0 74 181 72 166 9361
745 0 74 181 73 165 -1
746 0 74 181 72 165 9360
747 0 74 180 73 165 -1
748 0 74 179 74 165 -1
749 0 74 178 73 165 -1
750 0 75 191 16 121 8410
751 0 75 191 15 122 -1
752 0 75 192 15 121 -1
753 0 75 192 16 122 8417
754 0 75 193 17 122 8418
755 0 75 192 18 122 8412
756 0 75 191 18 123 8411
757 0 75 190 18 124 8414
758 0 75 189 19 123 -1
759 0 75 190 19 124 -1
760 0 76 0 155 73 6898
761 0 76 1 155 73 6894
762 0 76 0 156 73 6895
763 0 76 0 157 73 -1
764 0 76 199 158 72 -1
765 0 76 199 158 73 6897
766 0 76 0 158 72 6896
767 0 76 1 158 72 -1
768 0 76 1 157 71 -1
769 0 76 2 157 71 -1
770 0 77 111 151 97 9399
771 0 77 111 151 98 9396
772 0 77 110 151 98 -1
773 0 77 111 152 97 -1
774 0 77 110 152 98 9398
775 0 77 111 153 99 9391
776 0 77 110 154 100 -1
777 0 77 109 154 100 9390
778 0 77 110 155 100 -1
779 0 77 111 155 101 -1
780 0 78 99 137 96 7914
781 0 78 99 138 96 7912
782 0 78 100 138 97 -1
783 0 78 99 138 97 7911
784 0 78 100 137 97 7916
785 0 78 99 136 98 7913
786 0 78 98 135 98 -1
787 0 78 98 136 99 -1
788 0 78 97 137 99 8923
789 0 78 97 137 100 8922
790 0 79 99 148 133 9294
791 0 79 99 147 133 9293
792 0 79 100 146 133 9295
793 0 79 101 147 133 -1
794 0 79 102 146 133 -1
795 0 79 101 145 133 9296
796 0 79 101 145 134 9297
797 0 79 102 146 135 9299
798 0 79 103 145 135 -1
799 0 79 104 144 135 -1
800 0 80 160 21 133 6311
801 0 80 160 22 132 6310
802 0 80 159 21 131 6319
803 0 80 158 22 132 -1
804 0 80 157 22 133 -1
805 0 80 157 21 134 -1
806 0 80 157 20 133 -1
807 0 80 158 19 132 6314
808 0 80 159 18 131 6316
809 0 80 160 19 132 6312
810 0 81 40 110 3 5580
811 0 81 40 111 4 -1
812 0 81 41 111 4 5581
813 0 81 42 111 5 -1
814 0 81 41 112 5 5583
815 0 81 40 111 5 -1
816 0 81 39 110 4 -1
817 0 81 38 110 5 -1
818 0 81 39 109 4 -1
819 0 81 38 109 5 -1
820 0 82 193 84 153 -1
821 0 82 194 84 152 -1
822 0 82 194 83 151 7687
823 0 82 195 83 151 7686
824 0 82 195 82 150 -1
825 0 82 196 82 151 -1
826 0 82 196 81 150 7684
827 0 82 197 82 151 7683
828 0 82 198 83 152 7681
829 0 82 199 83 153 -1
830 0 83 124 35 22 -1
831 0 83 123 34 21 -1
832 0 83 124 35 21 -1
833 0 83 123 34 22 -1
834 0 83 123 33 23 -1
835 0 83 122 33 24 -1
836 0 83 122 34 23 -1
837 0 83 122 35 24 -1
838 0 83 123 34 24 -1
839 0 83 122 34 25 6559
840 0 84 156 42 56 6320
841 0 84 157 42 57 6321
842 0 84 156 41 57 6322
843 0 84 157 40 58 6323
844 0 84 156 41 58 6324
845 0 84 157 41 57 6325
846 0 84 158 41 58 6327
847 0 84 158 40 57 -1
848 0 84 157 40 57 -1
849 0 84 158 39 58 -1
850 0 85 91 114 89 8071
851 0 85 92 113 90 8070
852 0 85 93 113 91 8075
853 0 85 93 112 92 -1
854 0 85 92 112 91 8079
855 0 85 92 113 91 8076
856 0 85 92 114 91 -1
857 0 85 91 114 92 -1
858 0 85 90 114 93 -1
859 0 85 91 115 92 -1
860 0 86 173 112 112 5503
861 0 86 174 113 113 -1
862 0 86 174 112 113 -1
863 0 86 173 111 114 5500
864 0 86 173 112 114 5502
865 0 86 172 113 114 5506
866 0 86 171 113 115 5504
867 0 86 171 113 116 5505
868 0 86 172 112 116 5501
869 0 86 171 112 117 -1
870 0 87 3 199 83 -1
871 0 87 2 199 84 8228
872 0 87 2 0 83 -1
873 0 87 3 1 83 8224
874 0 87 2 2 84 8220
875 0 87 2 1 85 8221
876 0 87 3 0 84 -1
877 0 87 4 1 85 8223
878 0 87 3 2 84 -1
879 0 87 3 1 84 8222
880 0 88 150 6 140 -1
881 0 88 150 7 141 -1
882 0 88 151 6 142 9573
883 0 88 150 5 143 9576
884 0 88 150 4 143 9575
885 0 88 149 4 144 9577
886 0 88 149 4 143 -1
887 0 88 148 4 142 9578
888 0 88 149 5 142 9574
889 0 88 148 6 143 -1
890 0 89 162 102 161 5944
891 0 89 163 103 162 -1
892 0 89 162 104 163 5940
893 0 89 162 103 163 5942
894 0 89 163 104 163 5945
895 0 89 163 103 164 -1
896 0 89 162 103 164 5943
897 0 89 162 102 165 -1
898 0 89 161 103 164 -1
899 0 89 160 103 163 -1
900 0 90 84 66 48 -1
901 0 90 83 66 48 -1
902 0 90 83 65 49 -1
903 0 90 84 65 50 -1
904 0 90 85 66 51 9031
905 0 90 85 65 52 9032
906 0 90 84 64 52 -1
907 0 90 83 65 52 -1
908 0 90 84 64 51 9030
909 0 90 84 63 50 9039
910 0 91 81 102 119 -1
911 0 91 80 102 118 -1
912 0 91 80 103 117 -1
913 0 91 81 103 117 6077
914 0 91 82 103 117 -1
915 0 91 82 103 116 6078
916 0 91 82 102 117 6076
917 0 91 82 101 117 -1
918 0 91 82 100 117 -1
919 0 91 82 100 118 -1
920 0 92 151 9 44 6888
921 0 92 152 10 43 -1
922 0 92 151 10 42 6887
923 0 92 152 10 42 6884
924 0 92 151 9 42 6889
925 0 92 152 8 41 -1
926 0 92 153 9 40 6883
927 0 92 152 9 39 6880
928 0 92 151 8 40 5367
929 0 92 152 9 40 5366
930 0 93 161 113 72 7709
931 0 93 161 114 72 7706
932 0 93 160 113 72 7705
933 0 93 161 112 72 7707
934 0 93 160 112 72 -1
935 0 93 161 111 72 -1
936 0 93 162 110 72 -1
937 0 93 163 111 72 -1
938 0 93 164 110 72 -1
939 0 93 163 110 72 -1
940 0 94 25 83 169 -1
941 0 94 26 84 168 6716
942 0 94 27 85 167 6715
943 0 94 28 85 168 6713
944 0 94 28 84 168 6717
945 0 94 28 85 167 8332
946 0 94 29 84 168 -1
947 0 94 30 84 167 -1
948 0 94 31 85 166 -1
949 0 94 30 85 166 8331
950 0 95 18 101 2 5773
951 0 95 18 102 3 -1
952 0 95 17 101 2 5774
953 0 95 16 100 1 5779
954 0 95 17 100 0 -1
955 0 95 18 101 1 5777
956 0 95 19 102 2 -1
957 0 95 18 102 2 5775
958 0 95 19 101 1 -1
959 0 95 18 102 0 5770
960 0 96 29 191 33 9052
961 0 96 30 190 33 -1
962 0 96 31 190 32 9051
963 0 96 32 189 33 -1
964 0 96 32 188 33 9055
965 0 96 33 188 34 9056
966 0 96 34 188 33 9057
967 0 96 35 189 33 -1
968 0 96 34 190 33 -1
969 0 96 33 189 33 9059
970 0 97 156 174 194 9869
971 0 97 156 173 194 -1
972 0 97 157 173 195 -1
973 0 97 157 173 196 -1
974 0 97 158 173 196 -1
975 0 97 157 174 195 -1
976 0 97 156 175 196 9868
977 0 97 155 176 195 9866
978 0 97 156 176 196 9865
979 0 97 157 176 197 9860
980 0 98 20 7 101 -1
981 0 98 20 7 100 -1
982 0 98 21 6 99 -1
983 0 98 22 6 100 -1
984 0 98 22 5 99 -1
985 0 98 21 4 98 -1
986 0 98 21 4 97 -1
987 0 98 20 5 96 -1
988 0 98 21 5 95 -1
989 0 98 21 4 96 -1
990 0 99 184 100 51 -1
991 0 99 183 101 52 -1
992 0 99 182 102 51 6673
993 0 99 182 102 50 -1
994 0 99 181 102 49 6672
995 0 99 180 102 50 -1
996 0 99 179 101 51 6675
997 0 99 179 100 50 6671
998 0 99 179 99 51 6670
999 0 99 180 99 51 -1
1000 0 100 11 22 16 -1
1001 0 100 12 21 15 -1
1002 0 100 11 21 14 9688
1003 0 100 10 21 14 9687
1004 0 100 11 20 14 -1
1005 0 100 12 21 14 7691
1006 0 100 11 22 15 7694
1007 0 100 12 22 16 7692
1008 0 100 12 22 17 7693
1009 0 100 13 23 16 -1
1010 0 101 168 104 159 -1
1011 0 101 167 103 159 -1
1012 0 101 166 104 158 6774
1013 0 101 165 104 158 6772
1014 0 101 164 105 159 5949
1015 0 101 163 104 160 6777
1016 0 101 163 105 160 5948
1017 0 101 163 105 161 -1
1018 0 101 162 106 162 5947
1019 0 101 161 105 161 5946
1020 0 102 193 63 115 -1
1021 0 102 194 64 115 -1
1022 0 102 194 65 114 -1
1023 0 102 195 65 113 -1
1024 0 102 195 66 114 -1
1025 0 102 194 67 113 9217
1026 0 102 194 66 113 -1
1027 0 102 193 65 114 9211
1028 0 102 192 64 113 9212
1029 0 102 191 63 114 9210
1030 0 103 97 118 125 -1
1031 0 103 96 118 124 9497
1032 0 103 95 117 124 -1
1033 0 103 95 117 125 -1
1034 0 103 96 117 124 9495
1035 0 103 95 116 125 9494
1036 0 103 96 117 126 9493
1037 0 103 95 118 126 9492
1038 0 103 95 118 127 -1
1039 0 103 95 119 126 -1
1040 0 104 141 166 39 7711
1041 0 104 141 165 38 7712
1042 0 104 142 165 37 7713
1043 0 104 142 164 36 -1
1044 0 104 143 165 37 -1
1045 0 104 143 165 38 7719
1046 0 104 142 164 39 7714
1047 0 104 142 163 38 -1
1048 0 104 141 164 39 -1
1049 0 104 141 165 39 7710
1050 0 105 194 187 56 6750
1051 0 105 194 187 57 6751
1052 0 105 194 186 58 -1
1053 0 105 195 185 57 6752
1054 0 105 196 184 57 -1
1055 0 105 196 185 57 6754
1056 0 105 197 184 56 -1
1057 0 105 198 185 56 -1
1058 0 105 197 184 57 6756
1059 0 105 198 183 58 -1
1060 0 106 96 80 60 -1
1061 0 106 97 81 60 -1
1062 0 106 97 80 60 6467
1063 0 106 96 81 60 -1
1064 0 106 96 80 59 6462
1065 0 106 97 80 58 6466
1066 0 106 96 79 58 -1
1067 0 106 97 80 57 -1
1068 0 106 96 80 58 6468
1069 0 106 97 81 58 -1
1070 0 107 135 45 96 -1
1071 0 107 135 44 95 9461
1072 0 107 135 44 94 6907
1073 0 107 134 45 94 9460
1074 0 107 134 46 95 6909
1075 0 107 134 45 95 -1
1076 0 107 133 44 95 6906
1077 0 107 133 43 96 6905
1078 0 107 133 42 96 6901
1079 0 107 132 42 95 6902
1080 0 108 97 114 0 5864
1081 0 108 98 114 1 5861
1082 0 108 99 115 0 5862
1083 0 108 100 114 199 5865
1084 0 108 101 114 199 5869
1085 0 108 101 114 0 -1
1086 0 108 101 115 1 -1
1087 0 108 101 116 2 -1
1088 0 108 102 115 3 -1
1089 0 108 103 115 3 -1
1090 0 109 78 14 168 9583
1091 0 109 77 15 169 9586
1092 0 109 77 14 169 9581
1093 0 109 76 13 169 9582
1094 0 109 77 14 170 9585
1095 0 109 78 14 171 -1
1096 0 109 77 13 170 -1
1097 0 109 77 12 170 9584
1098 0 109 78 13 171 -1
1099 0 109 78 14 172 -1
1100 0 110 160 197 22 5612
1101 0 110 159 198 22 5611
1102 0 110 158 198 22 5615
1103 0 110 157 198 22 -1
1104 0 110 158 197 21 -1
1105 0 110 158 196 20 -1
1106 0 110 158 196 19 -1
1107 0 110 159 197 20 5613
1108 0 110 159 196 19 5614
1109 0 110 160 196 20 5618
1110 0 111 2 69 124 7653
1111 0 111 3 70 124 7652
1112 0 111 4 69 123 7650
1113 0 111 3 68 122 -1
1114 0 111 4 69 122 -1
1115 0 111 5 69 123 7654
1116 0 111 5 68 123 7655
1117 0 111 6 68 122 -1
1118 0 111 6 67 123 -1
1119 0 111 6 67 124 7656
1120 0 112 43 98 163 5441
1121 0 112 44 98 163 5440
1122 0 112 44 98 164 5442
1123 0 112 45 97 164 5447
1124 0 112 45 98 163 -1
1125 0 112 44 99 164 5443
1126 0 112 44 99 165 5446
1127 0 112 45 100 165 5444
1128 0 112 44 101 164 -1
1129 0 112 43 102 164 -1
1130 0 113 68 64 121 -1
1131 0 113 67 64 121 8899
1132 0 113 66 63 120 8893
1133 0 113 65 64 119 -1
1134 0 113 64 63 118 -1
1135 0 113 65 62 117 8891
1136 0 113 66 62 118 -1
1137 0 113 67 62 118 8898
1138 0 113 66 63 118 -1
1139 0 113 67 62 119 8894
1140 0 114 157 90 128 5144
1141 0 114 158 90 129 5149
1142 0 114 157 91 129 5141
1143 0 114 156 91 128 5140
1144 0 114 156 90 127 5147
1145 0 114 156 89 126 5146
1146 0 114 156 89 127 5145
1147 0 114 157 90 127 5142
1148 0 114 158 90 126 -1
1149 0 114 157 91 125 -1
1150 0 115 19 191 132 -1
1151 0 115 18 190 131 -1
1152 0 115 19 190 131 -1
1153 0 115 20 189 130 9843
1154 0 115 19 188 130 -1
1155 0 115 19 189 130 9844
1156 0 115 20 189 131 -1
1157 0 115 21 188 132 9842
1158 0 115 21 187 132 -1
1159 0 115 20 187 131 -1
1160 0 116 92 126 36 5248
1161 0 116 91 125 35 5241
1162 0 116 91 125 34 -1
1163 0 116 92 124 34 5247
1164 0 116 92 125 33 5244
1165 0 116 92 126 33 5249
1166 0 116 93 127 34 5245
1167 0 116 93 128 35 -1
1168 0 116 93 129 35 -1
1169 0 116 92 128 34 -1
1170 0 117 128 16 179 -1
1171 0 117 129 16 179 -1
1172 0 117 130 17 178 5970
1173 0 117 131 17 178 -1
1174 0 117 130 18 177 -1
1175 0 117 129 17 178 -1
1176 0 117 128 18 177 5971
1177 0 117 128 19 176 -1
1178 0 117 127 20 175 5559
1179 0 117 127 21 174 -1
1180 0 118 137 76 95 9900
1181 0 118 137 77 94 9901
1182 0 118 136 77 93 9902
1183 0 118 135 78 93 -1
1184 0 118 135 77 93 9904
1185 0 118 134 76 93 9903
1186 0 118 134 75 94 9906
1187 0 118 135 74 93 -1
1188 0 118 134 73 93 -1
1189 0 118 133 73 93 -1
1190 0 119 193 6 79 -1
1191 0 119 193 6 78 7241
1192 0 119 192 7 77 7243
1193 0 119 193 8 77 -1
1194 0 119 193 7 77 -1
1195 0 119 194 7 76 7246
1196 0 119 193 6 77 7240
1197 0 119 194 5 77 7247
1198 0 119 194 4 76 7249
1199 0 119 194 3 76 -1
1200 0 120 193 169 31 -1
1201 0 120 193 168 31 -1
1202 0 120 193 167 31 8975
1203 0 120 192 166 32 8976
1204 0 120 193 167 33 -1
1205 0 120 194 168 34 -1
1206 0 120 194 167 33 8974
1207 0 120 195 168 34 -1
1208 0 120 195 169 35 -1
1209 0 120 196 168 34 -1
1210 0 121 8 182 149 8200
1211 0 121 8 183 148 -1
1212 0 121 7 184 149 -1
1213 0 121 6 185 148 8207
1214 0 121 7 186 147 -1
1215 0 121 7 185 146 -1
1216 0 121 6 185 147 -1
1217 0 121 6 184 147 8204
1218 0 121 7 183 148 8203
1219 0 121 7 183 149 8202
1220 0 122 63 8 188 7836
1221 0 122 64 8 187 7833
1222 0 122 63 9 187 7835
1223 0 122 63 8 186 -1
1224 0 122 62 8 186 7830
1225 0 122 61 8 186 -1
1226 0 122 60 7 185 -1
1227 0 122 61 8 185 -1
1228 0 122 61 9 184 -1
1229 0 122 61 9 183 -1
1230 0 123 105 35 121 -1
1231 0 123 104 34 122 -1
1232 0 123 104 34 123 -1
1233 0 123 104 33 123 -1
1234 0 123 103 32 122 -1
1235 0 123 104 33 121 -1
1236 0 123 105 32 121 -1
1237 0 123 104 32 120 -1
1238 0 123 105 32 119 -1
1239 0 123 106 31 119 -1
1240 0 124 105 170 193 9945
1241 0 124 104 169 194 9946
1242 0 124 103 169 194 9944
1243 0 124 102 168 195 -1
1244 0 124 102 169 194 -1
1245 0 124 101 169 193 -1
1246 0 124 102 170 193 9942
1247 0 124 102 170 192 -1
1248 0 124 101 171 191 -1
1249 0 124 100 172 191 -1
1250 0 125 82 198 193 8981
1251 0 125 81 197 193 -1
1252 0 125 82 197 193 8980
1253 0 125 81 197 192 8982
1254 0 125 82 198 191 8985
1255 0 125 82 198 190 -1
1256 0 125 83 198 190 8987
1257 0 125 84 199 191 -1
1258 0 125 85 199 191 -1
1259 0 125 86 198 192 -1
1260 0 126 118 154 19 -1
1261 0 126 117 153 18 -1