LAMMPS Description

10000	atoms
18000	bonds
0	angles
0	dihedrals
0	impropers

6	atom types
1	bond types
0	angle types

0 200 xlo xhi
0 200 ylo yhi
0 200 zlo zhi

Masses

1	1.0
2	1.0
3	1.0
4	1.0
5	1.0
6	1.0

Atoms

0 0 0 0.0 68 83 70
1 0 0 0.0 67 82 70
2 0 0 0.0 67 81 70
3 0 0 0.0 66 80 69
4 0 0 0.0 66 81 68
5 0 0 0.0 66 81 67
6 0 0 0.0 66 82 67
7 0 0 0.0 67 82 67
8 0 0 0.0 66 82 68
9 0 0 0.0 66 83 69
10 1 0 0.0 75 128 41
11 1 0 0.0 74 129 41
12 1 0 0.0 74 128 42
13 1 0 0.0 75 128 42
14 1 0 0.0 76 127 41
15 1 0 0.0 76 128 40
16 1 0 0.0 77 127 41
17 1 0 0.0 77 126 40
18 1 0 0.0 78 126 40
19 1 0 0.0 79 125 41
20 2 0 0.0 138 76 32
21 2 0 0.0 139 75 33
22 2 0 0.0 139 76 34
23 2 0 0.0 139 77 35
24 2 0 0.0 138 78 36
25 2 0 0.0 137 77 37
26 2 0 0.0 137 78 36
27 2 0 0.0 137 77 36
28 2 0 0.0 138 76 37
29 2 0 0.0 138 77 36
30 3 0 0.0 23 103 184
31 3 0 0.0 23 102 184
32 3 0 0.0 23 103 183
33 3 0 0.0 22 103 184
34 3 0 0.0 21 102 184
35 3 0 0.0 21 103 183
36 3 0 0.0 22 103 182
37 3 0 0.0 21 102 181
38 3 0 0.0 21 103 182
39 3 0 0.0 21 104 183
40 4 0 0.0 130 67 83
41 4 0 0.0 130 68 83
42 4 0 0.0 131 67 82
43 4 0 0.0 131 68 81
44 4 0 0.0 131 67 81
45 4 0 0.0 132 67 82
46 4 0 0.0 131 68 82
47 4 0 0.0 130 69 83
48 4 0 0.0 130 69 84
49 4 0 0.0 129 68 83
50 5 0 0.0 2 5 46
51 5 0 0.0 1 6 45
52 5 0 0.0 1 6 44
53 5 0 0.0 1 7 43
54 5 0 0.0 0 7 43
55 5 0 0.0 199 8 44
56 5 0 0.0 0 7 44
57 5 0 0.0 1 7 45
58 5 0 0.0 2 6 45
59 5 0 0.0 3 6 45
60 6 0 0.0 188 195 62
61 6 0 0.0 189 196 62
62 6 0 0.0 190 196 63
63 6 0 0.0 189 196 64
64 6 0 0.0 189 197 65
65 6 0 0.0 189 196 65
66 6 0 0.0 188 195 66
67 6 0 0.0 188 196 65
68 6 0 0.0 188 197 65
69 6 0 0.0 189 197 64
70 7 0 0.0 3 51 93
71 7 0 0.0 4 52 93
72 7 0 0.0 5 53 93
73 7 0 0.0 5 52 94
74 7 0 0.0 4 53 95
75 7 0 0.0 5 52 96
76 7 0 0.0 5 52 97
77 7 0 0.0 6 53 97
78 7 0 0.0 7 54 96
79 7 0 0.0 6 53 96
80 8 0 0.0 116 56 191
81 8 0 0.0 117 57 191
82 8 0 0.0 116 57 191
83 8 0 0.0 117 56 190
84 8 0 0.0 117 55 189
85 8 0 0.0 116 54 188
86 8 0 0.0 115 55 187
87 8 0 0.0 114 54 186
88 8 0 0.0 114 53 185
89 8 0 0.0 113 52 184
90 9 0 0.0 61 144 26
91 9 0 0.0 60 145 26
92 9 0 0.0 60 144 25
93 9 0 0.0 61 143 24
94 9 0 0.0 61 142 23
95 9 0 0.0 62 142 22
96 9 0 0.0 61 142 22
97 9 0 0.0 62 143 22
98 9 0 0.0 61 143 23
99 9 0 0.0 62 143 23
100 10 0 0.0 177 142 67
101 10 0 0.0 176 141 67
102 10 0 0.0 175 140 66
103 10 0 0.0 175 141 67
104 10 0 0.0 175 141 66
105 10 0 0.0 176 141 65
106 10 0 0.0 177 142 66
107 10 0 0.0 178 142 66
108 10 0 0.0 179 143 66
109 10 0 0.0 178 144 67
110 11 0 0.0 112 102 46
111 11 0 0.0 111 101 47
112 11 0 0.0 112 101 46
113 11 0 0.0 111 102 45
114 11 0 0.0 110 103 46
115 11 0 0.0 110 104 46
116 11 0 0.0 109 105 46
117 11 0 0.0 109 104 47
118 11 0 0.0 108 103 46
119 11 0 0.0 107 103 47
120 12 0 0.0 62 77 147
121 12 0 0.0 61 77 148
122 12 0 0.0 60 76 148
123 12 0 0.0 61 76 148
124 12 0 0.0 60 75 149
125 12 0 0.0 59 76 148
126 12 0 0.0 58 75 148
127 12 0 0.0 58 74 148
128 12 0 0.0 57 75 147
129 12 0 0.0 56 75 146
130 13 0 0.0 193 97 130
131 13 0 0.0 192 98 130
132 13 0 0.0 192 97 130
133 13 0 0.0 192 97 129
134 13 0 0.0 193 98 129
135 13 0 0.0 192 98 128
136 13 0 0.0 191 98 127
137 13 0 0.0 190 97 127
138 13 0 0.0 190 96 128
139 13 0 0.0 189 95 127
140 14 0 0.0 194 99 153
141 14 0 0.0 194 100 152
142 14 0 0.0 194 100 151
143 14 0 0.0 195 101 151
144 14 0 0.0 194 100 150
145 14 0 0.0 193 99 150
146 14 0 0.0 192 98 149
147 14 0 0.0 192 99 148
148 14 0 0.0 192 99 147
149 14 0 0.0 192 100 147
150 15 0 0.0 134 6 4
151 15 0 0.0 133 7 3
152 15 0 0.0 133 7 2
153 15 0 0.0 134 7 1
154 15 0 0.0 133 8 0
155 15 0 0.0 133 8 1
156 15 0 0.0 132 8 0
157 15 0 0.0 132 9 199
158 15 0 0.0 131 8 0
159 15 0 0.0 131 9 199
160 16 0 0.0 166 113 36
161 16 0 0.0 167 114 37
162 16 0 0.0 168 115 37
163 16 0 0.0 168 116 38
164 16 0 0.0 168 116 37
165 16 0 0.0 168 115 36
166 16 0 0.0 169 116 35
167 16 0 0.0 168 116 34
168 16 0 0.0 168 117 33
169 16 0 0.0 169 118 33
170 17 0 0.0 137 17 152
171 17 0 0.0 136 18 152
172 17 0 0.0 136 18 151
173 17 0 0.0 136 18 150
174 17 0 0.0 135 17 151
175 17 0 0.0 136 17 150
176 17 0 0.0 136 17 149
177 17 0 0.0 137 16 149
178 17 0 0.0 138 15 150
179 17 0 0.0 137 16 151
180 18 0 0.0 27 114 64
181 18 0 0.0 27 113 65
182 18 0 0.0 26 112 66
183 18 0 0.0 25 111 66
184 18 0 0.0 25 111 65
185 18 0 0.0 25 111 64
186 18 0 0.0 24 110 64
187 18 0 0.0 23 109 64
188 18 0 0.0 22 108 63
189 18 0 0.0 23 107 62
190 19 0 0.0 170 92 56
191 19 0 0.0 169 92 57
192 19 0 0.0 168 92 56
193 19 0 0.0 168 93 56
194 19 0 0.0 169 92 55
195 19 0 0.0 168 92 55
196 19 0 0.0 167 91 56
197 19 0 0.0 167 92 56
198 19 0 0.0 166 93 55
199 19 0 0.0 166 94 56
200 20 0 0.0 83 191 70
201 20 0 0.0 82 191 69
202 20 0 0.0 81 191 68
203 20 0 0.0 80 190 67
204 20 0 0.0 79 189 67
205 20 0 0.0 79 188 66
206 20 0 0.0 79 189 66
207 20 0 0.0 80 189 65
208 20 0 0.0 81 190 64
209 20 0 0.0 80 189 64
210 21 0 0.0 119 157 149
211 21 0 0.0 118 157 149
212 21 0 0.0 117 158 150
213 21 0 0.0 117 159 150
214 21 0 0.0 117 158 151
215 21 0 0.0 118 157 152
216 21 0 0.0 119 157 153
217 21 0 0.0 120 158 154
218 21 0 0.0 119 159 153
219 21 0 0.0 119 160 152
220 22 0 0.0 77 188 194
221 22 0 0.0 77 189 193
222 22 0 0.0 76 189 193
223 22 0 0.0 77 189 194
224 22 0 0.0 78 188 194
225 22 0 0.0 79 187 195
226 22 0 0.0 79 188 195
227 22 0 0.0 79 188 194
228 22 0 0.0 79 189 195
229 22 0 0.0 79 190 195
230 23 0 0.0 95 96 126
231 23 0 0.0 95 97 127
232 23 0 0.0 94 96 128
233 23 0 0.0 95 96 127
234 23 0 0.0 96 97 128
235 23 0 0.0 95 98 129
236 23 0 0.0 95 97 128
237 23 0 0.0 96 98 129
238 23 0 0.0 96 98 130
239 23 0 0.0 97 99 129
240 24 0 0.0 15 70 76
241 24 0 0.0 16 69 75
242 24 0 0.0 16 68 75
243 24 0 0.0 16 69 76
244 24 0 0.0 17 70 75
245 24 0 0.0 18 69 75
246 24 0 0.0 19 68 74
247 24 0 0.0 18 67 75
248 24 0 0.0 17 68 76
249 24 0 0.0 18 68 76
250 25 0 0.0 155 90 58
251 25 0 0.0 155 90 59
252 25 0 0.0 155 91 60
253 25 0 0.0 156 92 60
254 25 0 0.0 155 92 59
255 25 0 0.0 155 93 59
256 25 0 0.0 155 94 59
257 25 0 0.0 156 95 58
258 25 0 0.0 155 96 59
259 25 0 0.0 156 97 59
260 26 0 0.0 147 131 66
261 26 0 0.0 147 132 67
262 26 0 0.0 147 132 66
263 26 0 0.0 148 131 67
264 26 0 0.0 147 132 68
265 26 0 0.0 146 132 67
266 26 0 0.0 145 132 66
267 26 0 0.0 144 132 65
268 26 0 0.0 145 132 65
269 26 0 0.0 146 133 64
270 27 0 0.0 135 28 23
271 27 0 0.0 136 29 24
272 27 0 0.0 137 29 24
273 27 0 0.0 138 30 23
274 27 0 0.0 137 30 23
275 27 0 0.0 137 31 22
276 27 0 0.0 138 32 21
277 27 0 0.0 139 31 21
278 27 0 0.0 138 30 22
279 27 0 0.0 138 29 21
280 28 0 0.0 136 27 196
281 28 0 0.0 135 28 196
282 28 0 0.0 134 29 197
283 28 0 0.0 135 30 198
284 28 0 0.0 136 31 197
285 28 0 0.0 136 31 196
286 28 0 0.0 136 30 195
287 28 0 0.0 137 30 195
288 28 0 0.0 136 29 196
289 28 0 0.0 135 30 197
290 29 0 0.0 131 30 113
291 29 0 0.0 132 29 114
292 29 0 0.0 133 30 115
293 29 0 0.0 133 29 114
294 29 0 0.0 132 28 113
295 29 0 0.0 131 29 113
296 29 0 0.0 130 28 112
297 29 0 0.0 129 29 111
298 29 0 0.0 128 30 111
299 29 0 0.0 129 29 110
300 30 0 0.0 48 58 0
301 30 0 0.0 47 59 1
302 30 0 0.0 46 59 1
303 30 0 0.0 47 58 1
304 30 0 0.0 47 58 0
305 30 0 0.0 46 59 0
306 30 0 0.0 46 58 0
307 30 0 0.0 45 59 1
308 30 0 0.0 45 60 2
309 30 0 0.0 44 59 2
310 31 0 0.0 82 197 180
311 31 0 0.0 83 197 179
312 31 0 0.0 82 196 179
313 31 0 0.0 82 195 180
314 31 0 0.0 83 194 179
315 31 0 0.0 83 193 178
316 31 0 0.0 82 194 179
317 31 0 0.0 83 193 180
318 31 0 0.0 83 194 180
319 31 0 0.0 82 195 179
320 32 0 0.0 16 11 116
321 32 0 0.0 16 11 117
322 32 0 0.0 16 10 116
323 32 0 0.0 17 9 116
324 32 0 0.0 17 8 117
325 32 0 0.0 17 8 118
326 32 0 0.0 16 7 119
327 32 0 0.0 17 7 120
328 32 0 0.0 18 7 119
329 32 0 0.0 18 6 118
330 33 0 0.0 0 131 111
331 33 0 0.0 1 130 112
332 33 0 0.0 1 130 113
333 33 0 0.0 2 130 114
334 33 0 0.0 3 129 115
335 33 0 0.0 3 128 116
336 33 0 0.0 3 127 115
337 33 0 0.0 3 126 115
338 33 0 0.0 2 126 114
339 33 0 0.0 2 125 113
340 34 0 0.0 145 196 63
341 34 0 0.0 144 197 62
342 34 0 0.0 145 197 62
343 34 0 0.0 146 196 61
344 34 0 0.0 147 197 60
345 34 0 0.0 148 197 60
346 34 0 0.0 149 196 60
347 34 0 0.0 148 196 59
348 34 0 0.0 148 197 59
349 34 0 0.0 149 198 58
350 35 0 0.0 0 126 108
351 35 0 0.0 199 125 108
352 35 0 0.0 0 124 109
353 35 0 0.0 0 125 108
354 35 0 0.0 0 126 107
355 35 0 0.0 1 127 107
356 35 0 0.0 0 128 108
357 35 0 0.0 199 129 108
358 35 0 0.0 199 129 107
359 35 0 0.0 199 129 106
360 36 0 0.0 109 19 75
361 36 0 0.0 109 20 75
362 36 0 0.0 108 19 74
363 36 0 0.0 108 20 74
364 36 0 0.0 108 20 73
365 36 0 0.0 108 21 74
366 36 0 0.0 107 21 73
367 36 0 0.0 108 21 73
368 36 0 0.0 107 22 74
369 36 0 0.0 107 23 75
370 37 0 0.0 155 128 5
371 37 0 0.0 156 127 4
372 37 0 0.0 156 127 3
373 37 0 0.0 157 126 2
374 37 0 0.0 157 127 3
375 37 0 0.0 158 126 3
376 37 0 0.0 157 127 2
377 37 0 0.0 156 127 2
378 37 0 0.0 156 128 3
379 37 0 0.0 157 127 4
380 38 0 0.0 89 157 105
381 38 0 0.0 88 157 104
382 38 0 0.0 88 156 105
383 38 0 0.0 89 156 106
384 38 0 0.0 88 155 106
385 38 0 0.0 87 154 105
386 38 0 0.0 88 153 104
387 38 0 0.0 87 153 104
388 38 0 0.0 88 153 103
389 38 0 0.0 88 152 102
390 39 0 0.0 101 124 28
391 39 0 0.0 100 123 28
392 39 0 0.0 100 123 27
393 39 0 0.0 99 123 28
394 39 0 0.0 98 123 29
395 39 0 0.0 97 123 28
396 39 0 0.0 96 123 27
397 39 0 0.0 95 123 28
398 39 0 0.0 94 122 28
399 39 0 0.0 94 123 28
400 40 0 0.0 116 16 144
401 40 0 0.0 115 15 143
402 40 0 0.0 115 14 144
403 40 0 0.0 114 15 144
404 40 0 0.0 114 16 143
405 40 0 0.0 113 16 143
406 40 0 0.0 112 16 143
407 40 0 0.0 112 17 143
408 40 0 0.0 111 16 143
409 40 0 0.0 112 15 144
410 41 0 0.0 137 72 70
411 41 0 0.0 138 71 71
412 41 0 0.0 137 72 72
413 41 0 0.0 137 72 73
414 41 0 0.0 137 73 73
415 41 0 0.0 138 73 73
416 41 0 0.0 139 73 72
417 41 0 0.0 138 72 73
418 41 0 0.0 138 72 72
419 41 0 0.0 137 71 71
420 42 0 0.0 20 97 145
421 42 0 0.0 20 97 146
422 42 0 0.0 20 96 146
423 42 0 0.0 19 96 145
424 42 0 0.0 18 97 146
425 42 0 0.0 17 97 145
426 42 0 0.0 16 98 144
427 42 0 0.0 15 98 145
428 42 0 0.0 14 97 145
429 42 0 0.0 14 97 146
430 43 0 0.0 191 76 145
431 43 0 0.0 192 76 145
432 43 0 0.0 192 77 144
433 43 0 0.0 193 78 145
434 43 0 0.0 194 78 146
435 43 0 0.0 194 79 146
436 43 0 0.0 195 79 145
437 43 0 0.0 194 78 145
438 43 0 0.0 193 77 145
439 43 0 0.0 192 76 146
440 44 0 0.0 93 3 143
441 44 0 0.0 94 3 143
442 44 0 0.0 95 3 142
443 44 0 0.0 96 4 143
444 44 0 0.0 97 4 142
445 44 0 0.0 97 5 142
446 44 0 0.0 97 5 143
447 44 0 0.0 96 4 142
448 44 0 0.0 96 4 141
449 44 0 0.0 95 4 141
450 45 0 0.0 138 94 53
451 45 0 0.0 139 94 53
452 45 0 0.0 138 94 52
453 45 0 0.0 138 95 51
454 45 0 0.0 139 94 51
455 45 0 0.0 138 93 52
456 45 0 0.0 137 92 52
457 45 0 0.0 137 92 51
458 45 0 0.0 136 93 51
459 45 0 0.0 136 94 52
460 46 0 0.0 32 26 126
461 46 0 0.0 32 25 125
462 46 0 0.0 31 24 125
463 46 0 0.0 31 25 124
464 46 0 0.0 31 26 124
465 46 0 0.0 30 27 123
466 46 0 0.0 29 26 123
467 46 0 0.0 30 27 122
468 46 0 0.0 29 28 121
469 46 0 0.0 28 29 120
470 47 0 0.0 82 63 47
471 47 0 0.0 83 64 46
472 47 0 0.0 83 63 45
473 47 0 0.0 84 64 44
474 47 0 0.0 85 65 43
475 47 0 0.0 84 64 42
476 47 0 0.0 84 63 43
477 47 0 0.0 84 63 42
478 47 0 0.0 84 64 43
479 47 0 0.0 85 65 44
480 48 0 0.0 13 70 112
481 48 0 0.0 13 70 113
482 48 0 0.0 14 69 113
483 48 0 0.0 15 68 112
484 48 0 0.0 14 69 111
485 48 0 0.0 13 69 112
486 48 0 0.0 13 68 112
487 48 0 0.0 12 68 111
488 48 0 0.0 11 69 111
489 48 0 0.0 10 69 111
490 49 0 0.0 3 66 1
491 49 0 0.0 2 67 0
492 49 0 0.0 2 66 1
493 49 0 0.0 1 66 1
494 49 0 0.0 2 65 2
495 49 0 0.0 3 64 2
496 49 0 0.0 4 65 1
497 49 0 0.0 3 66 0
498 49 0 0.0 2 67 1
499 49 0 0.0 2 67 2
500 50 0 0.0 16 173 172
501 50 0 0.0 15 174 171
502 50 0 0.0 15 175 172
503 50 0 0.0 16 176 173
504 50 0 0.0 17 176 174
505 50 0 0.0 17 175 174
506 50 0 0.0 16 174 173
507 50 0 0.0 16 174 172
508 50 0 0.0 16 174 171
509 50 0 0.0 15 173 172
510 51 0 0.0 145 60 39
511 51 0 0.0 144 60 40
512 51 0 0.0 144 61 40
513 51 0 0.0 144 62 39
514 51 0 0.0 144 62 38
515 51 0 0.0 145 63 37
516 51 0 0.0 144 64 38
517 51 0 0.0 143 63 39
518 51 0 0.0 143 62 40
519 51 0 0.0 142 61 41
520 52 0 0.0 99 28 76
521 52 0 0.0 100 28 75
522 52 0 0.0 100 29 74
523 52 0 0.0 99 29 74
524 52 0 0.0 98 28 75
525 52 0 0.0 98 29 75
526 52 0 0.0 98 29 74
527 52 0 0.0 99 30 74
528 52 0 0.0 99 30 73
529 52 0 0.0 100 31 74
530 53 0 0.0 33 82 65
531 53 0 0.0 34 82 64
532 53 0 0.0 35 83 65
533 53 0 0.0 36 84 64
534 53 0 0.0 36 85 65
535 53 0 0.0 35 85 65
536 53 0 0.0 36 84 65
537 53 0 0.0 36 85 64
538 53 0 0.0 37 86 63
539 53 0 0.0 37 85 63
540 54 0 0.0 44 163 1
541 54 0 0.0 43 163 0
542 54 0 0.0 44 162 199
543 54 0 0.0 44 163 0
544 54 0 0.0 43 164 0
545 54 0 0.0 42 165 199
546 54 0 0.0 42 165 198
547 54 0 0.0 41 164 197
548 54 0 0.0 41 165 198
549 54 0 0.0 42 166 198
550 55 0 0.0 158 193 148
551 55 0 0.0 157 194 149
552 55 0 0.0 156 193 148
553 55 0 0.0 157 193 149
554 55 0 0.0 157 194 148
555 55 0 0.0 156 195 147
556 55 0 0.0 156 195 148
557 55 0 0.0 157 196 147
558 55 0 0.0 158 196 146
559 55 0 0.0 157 196 145
560 56 0 0.0 113 175 126
561 56 0 0.0 112 174 127
562 56 0 0.0 111 175 126
563 56 0 0.0 112 174 126
564 56 0 0.0 113 174 126
565 56 0 0.0 114 175 127
566 56 0 0.0 115 176 128
567 56 0 0.0 116 175 127
568 56 0 0.0 116 174 127
569 56 0 0.0 117 175 128
570 57 0 0.0 93 78 33
571 57 0 0.0 94 79 32
572 57 0 0.0 94 79 31
573 57 0 0.0 95 79 32
574 57 0 0.0 95 78 33
575 57 0 0.0 95 78 34
576 57 0 0.0 96 79 33
577 57 0 0.0 96 79 34
578 57 0 0.0 96 78 35
579 57 0 0.0 95 79 36
580 58 0 0.0 144 53 165
581 58 0 0.0 145 54 166
582 58 0 0.0 146 55 165
583 58 0 0.0 145 56 164
584 58 0 0.0 146 56 164
585 58 0 0.0 145 56 163
586 58 0 0.0 144 57 164
587 58 0 0.0 143 56 163
588 58 0 0.0 144 56 164
589 58 0 0.0 144 55 165
590 59 0 0.0 103 16 153
591 59 0 0.0 102 16 153
592 59 0 0.0 103 16 152
593 59 0 0.0 103 16 151
594 59 0 0.0 104 16 151
595 59 0 0.0 104 15 150
596 59 0 0.0 105 14 150
597 59 0 0.0 106 15 151
598 59 0 0.0 106 14 150
599 59 0 0.0 105 15 149
600 60 0 0.0 37 177 192
601 60 0 0.0 38 177 191
602 60 0 0.0 37 177 190
603 60 0 0.0 37 177 189
604 60 0 0.0 38 176 189
605 60 0 0.0 38 177 190
606 60 0 0.0 39 178 191
607 60 0 0.0 40 179 191
608 60 0 0.0 39 179 190
609 60 0 0.0 40 180 189
610 61 0 0.0 45 65 101
611 61 0 0.0 45 64 102
612 61 0 0.0 46 64 103
613 61 0 0.0 47 63 103
614 61 0 0.0 46 62 103
615 61 0 0.0 46 63 102
616 61 0 0.0 46 63 101
617 61 0 0.0 45 64 101
618 61 0 0.0 44 65 101
619 61 0 0.0 44 66 102
620 62 0 0.0 189 144 41
621 62 0 0.0 188 144 42
622 62 0 0.0 187 144 41
623 62 0 0.0 187 145 40
624 62 0 0.0 186 145 41
625 62 0 0.0 186 145 40
626 62 0 0.0 185 144 41
627 62 0 0.0 184 145 42
628 62 0 0.0 183 145 41
629 62 0 0.0 182 146 42
630 63 0 0.0 37 52 76
631 63 0 0.0 36 51 75
632 63 0 0.0 36 50 76
633 63 0 0.0 37 51 75
634 63 0 0.0 38 52 75
635 63 0 0.0 38 51 75
636 63 0 0.0 38 52 76
637 63 0 0.0 38 51 77
638 63 0 0.0 37 50 77
639 63 0 0.0 36 51 77
640 64 0 0.0 100 29 159
641 64 0 0.0 101 30 158
642 64 0 0.0 102 30 159
643 64 0 0.0 102 30 160
644 64 0 0.0 103 29 161
645 64 0 0.0 103 29 162
646 64 0 0.0 103 30 163
647 64 0 0.0 102 30 164
648 64 0 0.0 102 31 164
649 64 0 0.0 103 31 165
650 65 0 0.0 109 195 0
651 65 0 0.0 110 194 199
652 65 0 0.0 110 194 0
653 65 0 0.0 110 195 199
654 65 0 0.0 109 196 198
655 65 0 0.0 108 195 197
656 65 0 0.0 109 194 198
657 65 0 0.0 109 195 198
658 65 0 0.0 109 195 197
659 65 0 0.0 108 194 197
660 66 0 0.0 124 94 13
661 66 0 0.0 124 94 14
662 66 0 0.0 124 93 14
663 66 0 0.0 125 93 15
664 66 0 0.0 125 92 16
665 66 0 0.0 125 92 17
666 66 0 0.0 124 91 17
667 66 0 0.0 125 91 18
668 66 0 0.0 126 91 17
669 66 0 0.0 127 92 16
670 67 0 0.0 107 147 73
671 67 0 0.0 108 146 72
672 67 0 0.0 109 147 71
673 67 0 0.0 109 147 70
674 67 0 0.0 109 147 69
675 67 0 0.0 108 146 68
676 67 0 0.0 108 145 68
677 67 0 0.0 107 144 67
678 67 0 0.0 107 145 68
679 67 0 0.0 108 144 68
680 68 0 0.0 78 165 163
681 68 0 0.0 77 166 163
682 68 0 0.0 76 166 163
683 68 0 0.0 76 165 164
684 68 0 0.0 75 166 164
685 68 0 0.0 74 167 165
686 68 0 0.0 73 166 164
687 68 0 0.0 73 167 163
688 68 0 0.0 74 166 162
689 68 0 0.0 75 165 161
690 69 0 0.0 190 143 54
691 69 0 0.0 190 143 53
692 69 0 0.0 191 144 54
693 69 0 0.0 192 143 55
694 69 0 0.0 191 143 56
695 69 0 0.0 190 143 57
696 69 0 0.0 190 143 56
697 69 0 0.0 191 142 55
698 69 0 0.0 191 141 55
699 69 0 0.0 192 141 54
700 70 0 0.0 43 148 168
701 70 0 0.0 43 149 167
702 70 0 0.0 43 148 167
703 70 0 0.0 43 147 167
704 70 0 0.0 44 147 166
705 70 0 0.0 45 148 167
706 70 0 0.0 46 149 166
707 70 0 0.0 46 150 167
708 70 0 0.0 46 149 168
709 70 0 0.0 45 148 168
710 71 0 0.0 33 32 127
711 71 0 0.0 34 31 128
712 71 0 0.0 34 32 129
713 71 0 0.0 33 32 128
714 71 0 0.0 32 31 128
715 71 0 0.0 31 31 127
716 71 0 0.0 32 30 126
717 71 0 0.0 32 31 126
718 71 0 0.0 32 30 125
719 71 0 0.0 31 29 125
720 72 0 0.0 142 186 141
721 72 0 0.0 142 185 140
722 72 0 0.0 141 186 141
723 72 0 0.0 141 187 141
724 72 0 0.0 142 187 141
725 72 0 0.0 143 186 141
726 72 0 0.0 143 186 142
727 72 0 0.0 142 187 143
728 72 0 0.0 142 188 142
729 72 0 0.0 141 189 141
730 73 0 0.0 0 32 98
731 73 0 0.0 0 33 97
732 73 0 0.0 199 32 97
733 73 0 0.0 0 31 96
734 73 0 0.0 199 32 96
735 73 0 0.0 0 33 95
736 73 0 0.0 1 32 96
737 73 0 0.0 1 32 97
738 73 0 0.0 0 33 96
739 73 0 0.0 0 32 97
740 74 0 0.0 195 32 43
741 74 0 0.0 195 32 42
742 74 0 0.0 196 33 42
743 74 0 0.0 195 33 42
744 74 0 0.0 195 33 43
745 74 0 0.0 194 33 43
746 74 0 0.0 193 32 44
747 74 0 0.0 192 32 43
748 74 0 0.0 192 31 42
749 74 0 0.0 193 31 42
750 75 0 0.0 192 10 121
751 75 0 0.0 192 9 122
752 75 0 0.0 193 10 122
753 75 0 0.0 194 10 123
754 75 0 0.0 193 11 124
755 75 0 0.0 192 10 124
756 75 0 0.0 192 9 123
757 75 0 0.0 193 8 124
758 75 0 0.0 192 9 124
759 75 0 0.0 193 9 123
760 76 0 0.0 112 50 64
761 76 0 0.0 111 49 63
762 76 0 0.0 112 48 64
763 76 0 0.0 111 47 64
764 76 0 0.0 110 47 64
765 76 0 0.0 110 46 63
766 76 0 0.0 110 46 62
767 76 0 0.0 110 47 63
768 76 0 0.0 109 47 63
769 76 0 0.0 108 48 64
770 77 0 0.0 36 30 119
771 77 0 0.0 36 29 118
772 77 0 0.0 35 28 118
773 77 0 0.0 34 27 117
774 77 0 0.0 35 28 117
775 77 0 0.0 36 29 117
776 77 0 0.0 37 28 118
777 77 0 0.0 38 29 119
778 77 0 0.0 39 28 119
779 77 0 0.0 40 29 119
780 78 0 0.0 140 24 70
781 78 0 0.0 140 25 69
782 78 0 0.0 141 26 68
783 78 0 0.0 141 27 69
784 78 0 0.0 142 28 68
785 78 0 0.0 143 29 69
786 78 0 0.0 144 30 70
787 78 0 0.0 145 29 69
788 78 0 0.0 146 30 70
789 78 0 0.0 146 31 71
790 79 0 0.0 46 22 155
791 79 0 0.0 47 22 156
792 79 0 0.0 48 23 157
793 79 0 0.0 48 24 158
794 79 0 0.0 49 25 159
795 79 0 0.0 50 26 160
796 79 0 0.0 51 25 159
797 79 0 0.0 51 25 158
798 79 0 0.0 51 24 157
799 79 0 0.0 50 24 158
800 80 0 0.0 30 33 146
801 80 0 0.0 29 32 145
802 80 0 0.0 28 31 144
803 80 0 0.0 27 30 143
804 80 0 0.0 26 31 144
805 80 0 0.0 27 32 144
806 80 0 0.0 27 33 145
807 80 0 0.0 28 32 144
808 80 0 0.0 27 33 143
809 80 0 0.0 26 32 142
810 81 0 0.0 108 161 15
811 81 0 0.0 108 162 16
812 81 0 0.0 108 163 15
813 81 0 0.0 109 163 14
814 81 0 0.0 108 163 13
815 81 0 0.0 107 163 12
816 81 0 0.0 108 162 13
817 81 0 0.0 108 163 12
818 81 0 0.0 109 162 13
819 81 0 0.0 108 161 13
820 82 0 0.0 148 64 108
821 82 0 0.0 148 64 109
822 82 0 0.0 147 64 110
823 82 0 0.0 147 64 109
824 82 0 0.0 148 64 110
825 82 0 0.0 147 65 109
826 82 0 0.0 147 65 108
827 82 0 0.0 147 66 107
828 82 0 0.0 147 67 106
829 82 0 0.0 148 67 106
830 83 0 0.0 73 178 130
831 83 0 0.0 72 177 130
832 83 0 0.0 73 178 129
833 83 0 0.0 72 178 129
834 83 0 0.0 72 178 128
835 83 0 0.0 72 179 129
836 83 0 0.0 73 179 128
837 83 0 0.0 73 180 127
838 83 0 0.0 73 180 126
839 83 0 0.0 72 179 127
840 84 0 0.0 89 8 82
841 84 0 0.0 89 9 81
842 84 0 0.0 90 10 82
843 84 0 0.0 89 11 82
844 84 0 0.0 89 12 83
845 84 0 0.0 89 11 84
846 84 0 0.0 89 10 83
847 84 0 0.0 90 9 84
848 84 0 0.0 89 9 83
849 84 0 0.0 90 8 84
850 85 0 0.0 114 181 79
851 85 0 0.0 115 181 79
852 85 0 0.0 116 181 79
853 85 0 0.0 115 180 79
854 85 0 0.0 115 181 80
855 85 0 0.0 115 180 81
856 85 0 0.0 114 181 81
857 85 0 0.0 113 180 82
858 85 0 0.0 112 180 81
859 85 0 0.0 112 181 81
860 86 0 0.0 97 136 88
861 86 0 0.0 98 136 89
862 86 0 0.0 97 136 90
863 86 0 0.0 98 137 91
864 86 0 0.0 97 136 92
865 86 0 0.0 98 135 91
866 86 0 0.0 97 134 90
867 86 0 0.0 97 135 91
868 86 0 0.0 96 135 90
869 86 0 0.0 96 134 90
870 87 0 0.0 177 139 139
871 87 0 0.0 176 139 138
872 87 0 0.0 175 139 138
873 87 0 0.0 176 140 138
874 87 0 0.0 175 141 139
875 87 0 0.0 176 142 139
876 87 0 0.0 177 142 140
877 87 0 0.0 178 143 140
878 87 0 0.0 177 143 141
879 87 0 0.0 176 142 140
880 88 0 0.0 82 182 87
881 88 0 0.0 81 182 87
882 88 0 0.0 81 183 86
883 88 0 0.0 81 183 87
884 88 0 0.0 82 183 88
885 88 0 0.0 82 182 88
886 88 0 0.0 81 181 87
887 88 0 0.0 82 181 88
888 88 0 0.0 82 181 89
889 88 0 0.0 81 180 90
890 89 0 0.0 0 189 131
891 89 0 0.0 199 188 131
892 89 0 0.0 199 188 132
893 89 0 0.0 198 187 132
894 89 0 0.0 198 187 133
895 89 0 0.0 199 186 133
896 89 0 0.0 0 186 134
897 89 0 0.0 0 185 134
898 89 0 0.0 199 185 134
899 89 0 0.0 198 185 133
900 90 0 0.0 51 18 34
901 90 0 0.0 50 17 34
902 90 0 0.0 49 17 34
903 90 0 0.0 48 17 34
904 90 0 0.0 49 16 33
905 90 0 0.0 49 17 33
906 90 0 0.0 50 17 32
907 90 0 0.0 51 17 32
908 90 0 0.0 51 17 31
909 90 0 0.0 52 18 31
910 91 0 0.0 7 24 5
911 91 0 0.0 6 24 4
912 91 0 0.0 5 25 4
913 91 0 0.0 6 25 4
914 91 0 0.0 5 25 3
915 91 0 0.0 5 25 2
916 91 0 0.0 6 26 2
917 91 0 0.0 6 25 1
918 91 0 0.0 6 24 2
919 91 0 0.0 5 24 2
920 92 0 0.0 115 189 133
921 92 0 0.0 115 190 133
922 92 0 0.0 114 191 133
923 92 0 0.0 114 192 132
924 92 0 0.0 115 191 133
925 92 0 0.0 115 190 134
926 92 0 0.0 115 191 134
927 92 0 0.0 114 192 135
928 92 0 0.0 114 191 136
929 92 0 0.0 114 192 137
930 93 0 0.0 160 103 91
931 93 0 0.0 161 103 91
932 93 0 0.0 161 104 92
933 93 0 0.0 160 104 92
934 93 0 0.0 159 104 93
935 93 0 0.0 158 105 94
936 93 0 0.0 157 105 95
937 93 0 0.0 157 106 96
938 93 0 0.0 157 105 96
939 93 0 0.0 156 106 95
940 94 0 0.0 86 142 143
941 94 0 0.0 85 142 143
942 94 0 0.0 85 141 143
943 94 0 0.0 84 140 144
944 94 0 0.0 83 140 144
945 94 0 0.0 82 141 144
946 94 0 0.0 81 142 145
947 94 0 0.0 80 142 146
948 94 0 0.0 79 143 145
949 94 0 0.0 79 142 144
950 95 0 0.0 71 158 8
951 95 0 0.0 71 159 9
952 95 0 0.0 70 159 10
953 95 0 0.0 71 158 9
954 95 0 0.0 72 157 10
955 95 0 0.0 71 157 10
956 95 0 0.0 72 157 11
957 95 0 0.0 73 157 12
958 95 0 0.0 72 158 13
959 95 0 0.0 72 158 14
960 96 0 0.0 51 31 130
961 96 0 0.0 51 30 129
962 96 0 0.0 51 29 129
963 96 0 0.0 52 28 128
964 96 0 0.0 52 27 128
965 96 0 0.0 52 28 127
966 96 0 0.0 51 27 126
967 96 0 0.0 50 28 125
968 96 0 0.0 51 28 125
969 96 0 0.0 51 29 126
970 97 0 0.0 169 136 29
971 97 0 0.0 168 135 28
972 97 0 0.0 167 136 29
973 97 0 0.0 166 136 30
974 97 0 0.0 167 135 30
975 97 0 0.0 168 134 29
976 97 0 0.0 168 134 30
977 97 0 0.0 169 134 29
978 97 0 0.0 170 133 29
979 97 0 0.0 169 133 29
980 98 0 0.0 139 181 182
981 98 0 0.0 140 180 182
982 98 0 0.0 141 180 183
983 98 0 0.0 141 179 184
984 98 0 0.0 141 178 185
985 98 0 0.0 141 179 185
986 98 0 0.0 141 180 185
987 98 0 0.0 142 181 184
988 98 0 0.0 143 180 183
989 98 0 0.0 143 179 183
990 99 0 0.0 26 190 111
991 99 0 0.0 26 191 110
992 99 0 0.0 27 191 111
993 99 0 0.0 26 190 112
994 99 0 0.0 25 190 112
995 99 0 0.0 26 189 111
996 99 0 0.0 25 190 111
997 99 0 0.0 24 190 112
998 99 0 0.0 24 189 113
999 99 0 0.0 23 190 114
1000 100 0 0.0 197 13 43
1001 100 0 0.0 197 14 43
1002 100 0 0.0 196 15 43
1003 100 0 0.0 195 16 42
1004 100 0 0.0 196 15 41
1005 100 0 0.0 197 14 42
1006 100 0 0.0 196 13 43
1007 100 0 0.0 197 14 44
1008 100 0 0.0 197 13 45
1009 100 0 0.0 197 13 46
1010 101 0 0.0 128 27 146
1011 101 0 0.0 129 27 146
1012 101 0 0.0 130 26 146
1013 101 0 0.0 129 25 146
1014 101 0 0.0 129 26 146
1015 101 0 0.0 129 25 147
1016 101 0 0.0 128 24 146
1017 101 0 0.0 129 25 145
1018 101 0 0.0 130 24 144
1019 101 0 0.0 130 24 145
1020 102 0 0.0 192 159 75
1021 102 0 0.0 191 160 75
1022 102 0 0.0 190 159 75
1023 102 0 0.0 189 158 76
1024 102 0 0.0 189 157 76
1025 102 0 0.0 190 157 75
1026 102 0 0.0 191 156 76
1027 102 0 0.0 190 157 76
1028 102 0 0.0 191 158 77
1029 102 0 0.0 190 158 76
1030 103 0 0.0 15 164 150
1031 103 0 0.0 14 163 151
1032 103 0 0.0 14 162 152
1033 103 0 0.0 13 162 151
1034 103 0 0.0 14 163 150
1035 103 0 0.0 15 162 151
1036 103 0 0.0 14 161 150
1037 103 0 0.0 15 161 149
1038 103 0 0.0 15 161 148
1039 103 0 0.0 15 162 149
1040 104 0 0.0 40 184 32
1041 104 0 0.0 39 183 33
1042 104 0 0.0 38 184 32
1043 104 0 0.0 37 183 32
1044 104 0 0.0 37 182 33
1045 104 0 0.0 36 181 32
1046 104 0 0.0 37 181 31
1047 104 0 0.0 37 180 32
1048 104 0 0.0 38 181 33
1049 104 0 0.0 39 181 32
1050 105 0 0.0 161 123 94
1051 105 0 0.0 160 123 94
1052 105 0 0.0 160 124 94
1053 105 0 0.0 159 123 95
1054 105 0 0.0 158 122 94
1055 105 0 0.0 157 122 95
1056 105 0 0.0 158 121 94
1057 105 0 0.0 158 120 95
1058 105 0 0.0 157 121 96
1059 105 0 0.0 158 120 97
1060 106 0 0.0 20 18 176
1061 106 0 0.0 20 19 175
1062 106 0 0.0 19 18 176
1063 106 0 0.0 19 18 175
1064 106 0 0.0 18 19 176
1065 106 0 0.0 17 19 176
1066 106 0 0.0 18 19 177
1067 106 0 0.0 19 19 177
1068 106 0 0.0 19 19 176
1069 106 0 0.0 20 19 177
1070 107 0 0.0 61 172 61
1071 107 0 0.0 61 173 62
1072 107 0 0.0 60 172 62
1073 107 0 0.0 60 173 61
1074 107 0 0.0 60 172 60
1075 107 0 0.0 59 171 60
1076 107 0 0.0 60 171 61
1077 107 0 0.0 61 171 62
1078 107 0 0.0 60 170 61
1079 107 0 0.0 61 170 62
1080 108 0 0.0 180 176 172
1081 108 0 0.0 181 176 173
1082 108 0 0.0 181 175 173
1083 108 0 0.0 180 176 173
1084 108 0 0.0 179 176 173
1085 108 0 0.0 179 176 174
1086 108 0 0.0 178 177 173
1087 108 0 0.0 178 178 172
1088 108 0 0.0 177 177 171
1089 108 0 0.0 177 178 171
1090 109 0 0.0 72 13 138
1091 109 0 0.0 73 13 138
1092 109 0 0.0 74 13 139
1093 109 0 0.0 73 13 140
1094 109 0 0.0 74 12 139
1095 109 0 0.0 73 12 140
1096 109 0 0.0 74 13 140
1097 109 0 0.0 74 12 140
1098 109 0 0.0 73 12 141
1099 109 0 0.0 74 13 142
1100 110 0 0.0 17 156 65
1101 110 0 0.0 16 156 64
1102 110 0 0.0 16 157 64
1103 110 0 0.0 15 156 63
1104 110 0 0.0 16 156 62
1105 110 0 0.0 16 157 62
1106 110 0 0.0 17 158 62
1107 110 0 0.0 16 158 62
1108 110 0 0.0 15 157 61
1109 110 0 0.0 14 158 60
1110 111 0 0.0 10 180 148
1111 111 0 0.0 10 181 148
1112 111 0 0.0 10 182 147
1113 111 0 0.0 10 183 147
1114 111 0 0.0 10 183 148
1115 111 0 0.0 9 182 149
1116 111 0 0.0 10 181 150
1117 111 0 0.0 11 180 149
1118 111 0 0.0 10 180 149
1119 111 0 0.0 9 181 149
1120 112 0 0.0 141 14 1
1121 112 0 0.0 141 13 2
1122 112 0 0.0 140 14 1
1123 112 0 0.0 141 13 0
1124 112 0 0.0 142 13 199
1125 112 0 0.0 142 12 199
1126 112 0 0.0 143 12 0
1127 112 0 0.0 143 11 199
1128 112 0 0.0 144 10 199
1129 112 0 0.0 144 9 199
1130 113 0 0.0 109 91 10
1131 113 0 0.0 108 90 11
1132 113 0 0.0 109 90 12
1133 113 0 0.0 108 91 13
1134 113 0 0.0 108 91 12
1135 113 0 0.0 107 91 12
1136 113 0 0.0 107 90 13
1137 113 0 0.0 106 91 13
1138 113 0 0.0 106 90 13
1139 113 0 0.0 106 89 13
1140 114 0 0.0 143 50 172
1141 114 0 0.0 142 50 171
1142 114 0 0.0 142 49 171
1143 114 0 0.0 142 48 172
1144 114 0 0.0 142 47 172
1145 114 0 0.0 141 46 172
1146 114 0 0.0 141 45 172
1147 114 0 0.0 140 46 172
1148 114 0 0.0 140 47 172
1149 114 0 0.0 139 48 173
1150 115 0 0.0 59 102 138
1151 115 0 0.0 58 103 138
1152 115 0 0.0 57 103 137
1153 115 0 0.0 56 102 137
1154 115 0 0.0 57 102 137
1155 115 0 0.0 57 103 138
1156 115 0 0.0 56 102 139
1157 115 0 0.0 57 102 138
1158 115 0 0.0 58 103 137
1159 115 0 0.0 58 102 137
1160 116 0 0.0 32 102 8
1161 116 0 0.0 33 102 7
1162 116 0 0.0 34 103 6
1163 116 0 0.0 35 102 5
1164 116 0 0.0 36 102 6
1165 116 0 0.0 35 103 5
1166 116 0 0.0 34 102 6
1167 116 0 0.0 33 103 5
1168 116 0 0.0 33 103 6
1169 116 0 0.0 34 103 7
1170 117 0 0.0 104 199 18
1171 117 0 0.0 105 198 19
1172 117 0 0.0 104 197 18
1173 117 0 0.0 104 198 18
1174 117 0 0.0 105 199 19
1175 117 0 0.0 105 198 20
1176 117 0 0.0 104 199 20
1177 117 0 0.0 104 199 21
1178 117 0 0.0 105 199 22
1179 117 0 0.0 106 199 22
1180 118 0 0.0 157 50 177
1181 118 0 0.0 158 51 176
1182 118 0 0.0 158 51 177
1183 118 0 0.0 159 52 178
1184 118 0 0.0 159 53 179
1185 118 0 0.0 159 52 180
1186 118 0 0.0 159 52 181
1187 118 0 0.0 158 51 180
1188 118 0 0.0 158 52 181
1189 118 0 0.0 157 51 181
1190 119 0 0.0 91 128 184
1191 119 0 0.0 92 128 184
1192 119 0 0.0 92 127 183
1193 119 0 0.0 91 128 183
1194 119 0 0.0 90 128 183
1195 119 0 0.0 91 129 184
1196 119 0 0.0 90 129 183
1197 119 0 0.0 90 128 184
1198 119 0 0.0 91 129 183
1199 119 0 0.0 92 129 183
1200 120 0 0.0 65 117 129
1201 120 0 0.0 66 116 129
1202 120 0 0.0 65 117 128
1203 120 0 0.0 64 116 128
1204 120 0 0.0 65 117 127
1205 120 0 0.0 66 116 127
1206 120 0 0.0 65 116 128
1207 120 0 0.0 64 117 129
1208 120 0 0.0 65 116 129
1209 120 0 0.0 66 117 130
1210 121 0 0.0 159 79 183
1211 121 0 0.0 158 78 183
1212 121 0 0.0 157 79 183
1213 121 0 0.0 156 80 182
1214 121 0 0.0 155 79 182
1215 121 0 0.0 155 78 183
1216 121 0 0.0 155 79 183
1217 121 0 0.0 154 80 183
1218 121 0 0.0 155 81 183
1219 121 0 0.0 155 81 182
1220 122 0 0.0 181 75 41
1221 122 0 0.0 180 76 42
1222 122 0 0.0 179 77 43
1223 122 0 0.0 179 76 44
1224 122 0 0.0 179 75 45
1225 122 0 0.0 178 76 44
1226 122 0 0.0 177 77 43
1227 122 0 0.0 177 78 44
1228 122 0 0.0 177 79 45
1229 122 0 0.0 176 79 46
1230 123 0 0.0 36 136 84
1231 123 0 0.0 36 137 84
1232 123 0 0.0 36 138 84
1233 123 0 0.0 35 138 85
1234 123 0 0.0 35 139 84
1235 123 0 0.0 34 138 84
1236 123 0 0.0 35 139 83
1237 123 0 0.0 36 139 84
1238 123 0 0.0 37 140 85
1239 123 0 0.0 37 140 86
1240 124 0 0.0 140 75 111
1241 124 0 0.0 139 74 111
1242 124 0 0.0 138 74 112
1243 124 0 0.0 139 73 111
1244 124 0 0.0 138 74 111
1245 124 0 0.0 137 75 112
1246 124 0 0.0 138 76 113
1247 124 0 0.0 139 76 113
1248 124 0 0.0 140 77 114
1249 124 0 0.0 141 78 115
1250 125 0 0.0 74 195 71
1251 125 0 0.0 75 196 72
1252 125 0 0.0 75 196 71
1253 125 0 0.0 75 196 70
1254 125 0 0.0 76 196 71
1255 125 0 0.0 75 197 72
1256 125 0 0.0 76 197 72
1257 125 0 0.0 77 197 72
1258 125 0 0.0 78 196 72
1259 125 0 0.0 79 195 72
1260 126 0 0.0 123 60 199
1261 126 0 0.0 123 61 0
1262 126 0 0.0 122 60 0