ITEM: TIMESTEP
0
ITEM: NUMBER OF ATOMS
10000
ITEM: BOX BOUNDS pp pp pp
0 200
0 200
0 200
ITEM: ATOMS id type mol x y z bP
0 0 0 0 69 5 5667
1 0 0 199 69 6 -1
2 0 0 198 70 7 -1
3 0 0 198 70 6 -1
4 0 0 197 70 5 5661
5 0 0 196 69 4 -1
6 0 0 197 68 5 5669
7 0 0 198 68 4 5668
8 0 0 198 69 5 5663
9 0 0 199 68 6 5664
10 0 1 90 28 115 -1
11 0 1 90 29 114 -1
12 0 1 89 29 115 -1
13 0 1 89 30 114 -1
14 0 1 88 31 115 -1
15 0 1 89 30 116 -1
16 0 1 88 31 116 -1
17 0 1 88 30 116 -1
18 0 1 87 30 116 -1
19 0 1 88 30 117 -1
20 0 2 19 104 148 7680
21 0 2 18 104 148 7684
22 0 2 19 104 147 7689
23 0 2 20 105 147 -1
24 0 2 21 105 147 -1
25 0 2 20 104 148 7688
26 0 2 20 103 149 -1
27 0 2 21 104 150 -1
28 0 2 22 105 150 -1
29 0 2 21 104 149 -1
30 0 3 120 26 173 8111
31 0 3 120 26 174 8115
32 0 3 119 25 175 -1
33 0 3 118 25 174 8110
34 0 3 119 26 174 8116
35 0 3 120 27 175 -1
36 0 3 121 27 175 -1
37 0 3 121 27 174 -1
38 0 3 121 26 173 8112
39 0 3 122 27 172 -1
40 0 4 42 70 80 6130
41 0 4 43 70 79 6136
42 0 4 43 69 78 6139
43 0 4 44 70 77 6137
44 0 4 44 71 78 -1
45 0 4 43 70 77 6131
46 0 4 42 70 77 -1
47 0 4 43 70 76 -1
48 0 4 43 71 75 -1
49 0 4 42 72 74 -1
50 0 5 122 168 74 -1
51 0 5 123 168 74 -1
52 0 5 122 168 73 -1
53 0 5 122 169 73 6072
54 0 5 122 170 72 -1
55 0 5 121 169 71 -1
56 0 5 122 168 71 -1
57 0 5 123 167 70 -1
58 0 5 123 166 70 -1
59 0 5 123 165 71 -1
60 0 6 143 61 110 7140
61 0 6 143 60 110 -1
62 0 6 142 59 109 -1
63 0 6 141 60 109 -1
64 0 6 141 61 110 -1
65 0 6 142 62 111 7143
66 0 6 141 62 111 -1
67 0 6 142 63 110 -1
68 0 6 143 64 111 7146
69 0 6 144 63 112 7141
70 0 7 90 142 16 -1
71 0 7 89 143 15 8000
72 0 7 90 142 14 -1
73 0 7 90 143 13 8007
74 0 7 91 143 14 8001
75 0 7 90 142 13 8005
76 0 7 89 141 13 8006
77 0 7 90 142 12 -1
78 0 7 90 142 11 -1
79 0 7 89 141 10 8009
80 0 8 113 188 134 -1
81 0 8 112 189 134 -1
82 0 8 112 188 134 -1
83 0 8 112 187 135 -1
84 0 8 112 186 134 8015
85 0 8 111 185 133 8014
86 0 8 110 185 134 8017
87 0 8 111 184 134 -1
88 0 8 112 183 133 -1
89 0 8 112 184 133 -1
90 0 9 96 135 87 -1
91 0 9 97 136 86 -1
92 0 9 97 137 85 -1
93 0 9 98 137 84 6662
94 0 9 98 136 84 -1
95 0 9 98 136 83 6664
96 0 9 97 137 84 6660
97 0 9 98 138 83 6661
98 0 9 99 139 83 6663
99 0 9 99 139 84 -1
100 0 10 14 175 12 -1
101 0 10 15 176 11 9439
102 0 10 15 176 12 9432
103 0 10 16 177 11 -1
104 0 10 15 176 10 9437
105 0 10 16 177 10 9431
106 0 10 17 178 10 -1
107 0 10 16 178 9 9436
108 0 10 17 179 8 -1
109 0 10 18 179 9 -1
110 0 11 34 45 191 -1
111 0 11 35 46 192 -1
112 0 11 35 46 191 6348
113 0 11 35 47 190 -1
114 0 11 36 48 189 6340
115 0 11 36 49 188 6341
116 0 11 35 50 189 6345
117 0 11 34 49 188 -1
118 0 11 35 49 188 6343
119 0 11 35 49 189 -1
120 0 12 39 114 76 -1
121 0 12 38 115 77 8340
122 0 12 37 115 78 8341
123 0 12 36 114 78 -1
124 0 12 37 115 79 8344
125 0 12 37 114 78 -1
126 0 12 37 113 77 8343
127 0 12 38 113 78 8347
128 0 12 38 112 79 -1
129 0 12 39 112 78 -1
130 0 13 77 122 159 5957
131 0 13 77 121 159 5956
132 0 13 76 120 160 8098
133 0 13 76 119 161 8099
134 0 13 75 120 162 -1
135 0 13 75 121 161 5741
136 0 13 74 120 160 8091
137 0 13 73 120 161 -1
138 0 13 73 121 162 -1
139 0 13 73 120 163 -1
140 0 14 130 185 39 -1
141 0 14 129 186 39 -1
142 0 14 128 186 38 -1
143 0 14 129 187 39 6020
144 0 14 130 188 40 -1
145 0 14 129 188 39 -1
146 0 14 129 189 39 6021
147 0 14 130 189 38 -1
148 0 14 129 190 37 6024
149 0 14 130 189 37 6025
150 0 15 50 51 113 9200
151 0 15 49 52 114 9203
152 0 15 49 52 113 9201
153 0 15 48 52 112 9206
154 0 15 49 51 111 -1
155 0 15 48 50 112 -1
156 0 15 47 51 112 -1
157 0 15 47 51 111 -1
158 0 15 46 52 111 -1
159 0 15 47 51 110 -1
160 0 16 119 193 52 -1
161 0 16 118 193 53 -1
162 0 16 117 192 53 -1
163 0 16 117 191 52 -1
164 0 16 118 192 51 9722
165 0 16 118 191 51 -1
166 0 16 117 190 50 -1
167 0 16 116 189 50 -1
168 0 16 115 190 50 -1
169 0 16 114 191 50 -1
170 0 17 43 197 116 8636
171 0 17 42 197 116 -1
172 0 17 41 197 115 -1
173 0 17 41 198 114 -1
174 0 17 41 198 113 8635
175 0 17 41 197 114 -1
176 0 17 42 196 113 8631
177 0 17 41 195 113 8634
178 0 17 41 196 114 8638
179 0 17 40 197 115 -1
180 0 18 174 117 22 -1
181 0 18 175 117 21 7402
182 0 18 175 118 20 -1
183 0 18 176 117 20 7400
184 0 18 177 118 19 7401
185 0 18 177 119 19 -1
186 0 18 177 120 20 7405
187 0 18 178 119 19 7403
188 0 18 178 119 18 -1
189 0 18 179 120 18 7408
190 0 19 38 63 186 -1
191 0 19 37 64 187 -1
192 0 19 36 64 188 7590
193 0 19 35 63 189 7594
194 0 19 34 63 190 7593
195 0 19 33 62 190 -1
196 0 19 33 63 190 7595
197 0 19 33 64 189 7592
198 0 19 34 65 188 7591
199 0 19 35 65 189 -1
200 0 20 96 142 83 -1
201 0 20 96 141 84 -1
202 0 20 95 142 84 -1
203 0 20 95 141 84 -1
204 0 20 94 141 85 -1
205 0 20 94 142 86 7291
206 0 20 95 141 85 7290
207 0 20 96 141 86 7296
208 0 20 96 140 87 7292
209 0 20 97 141 88 7297
210 0 21 119 96 189 5428
211 0 21 119 96 188 5427
212 0 21 120 97 188 5426
213 0 21 121 96 188 -1
214 0 21 120 95 189 5424
215 0 21 121 95 189 -1
216 0 21 122 95 189 5121
217 0 21 121 94 190 -1
218 0 21 122 95 190 -1
219 0 21 123 94 190 5123
220 0 22 134 131 129 -1
221 0 22 135 131 130 -1
222 0 22 134 132 129 -1
223 0 22 134 133 129 -1
224 0 22 134 133 130 -1
225 0 22 133 132 129 -1
226 0 22 132 132 128 8485
227 0 22 131 131 127 8483
228 0 22 132 131 128 -1
229 0 22 131 130 127 8484
230 0 23 145 163 11 -1
231 0 23 144 163 10 -1
232 0 23 145 163 9 6784
233 0 23 145 164 10 -1
234 0 23 146 165 11 6788
235 0 23 146 165 10 6786
236 0 23 146 166 9 6783
237 0 23 147 166 8 6782
238 0 23 147 165 7 -1
239 0 23 147 164 7 6780
240 0 24 169 74 199 -1
241 0 24 168 74 198 -1
242 0 24 167 74 199 -1
243 0 24 166 73 0 -1
244 0 24 165 73 1 -1
245 0 24 165 74 2 -1
246 0 24 164 74 1 -1
247 0 24 164 75 0 -1
248 0 24 164 76 1 -1
249 0 24 163 75 0 -1
250 0 25 145 24 34 -1
251 0 25 144 23 35 -1
252 0 25 144 24 34 -1
253 0 25 143 24 34 -1
254 0 25 142 25 35 -1
255 0 25 142 24 36 -1
256 0 25 143 23 37 -1
257 0 25 143 23 38 -1
258 0 25 144 23 39 -1
259 0 25 144 24 38 -1
260 0 26 26 117 75 7607
261 0 26 26 118 76 7606
262 0 26 26 119 75 7608
263 0 26 26 120 76 7609
264 0 26 27 120 75 -1
265 0 26 26 120 75 -1
266 0 26 25 121 75 -1
267 0 26 24 120 74 7601
268 0 26 23 119 75 -1
269 0 26 22 120 74 -1
270 0 27 4 98 38 -1
271 0 27 3 97 37 -1
272 0 27 3 96 36 -1
273 0 27 4 95 36 -1
274 0 27 4 96 35 -1
275 0 27 4 97 34 -1
276 0 27 4 98 34 -1
277 0 27 4 98 33 -1
278 0 27 4 99 34 -1
279 0 27 3 100 33 -1
280 0 28 86 180 26 -1
281 0 28 85 181 27 7633
282 0 28 86 181 28 -1
283 0 28 85 182 27 -1
284 0 28 84 181 28 7632
285 0 28 85 180 29 7630
286 0 28 86 179 29 -1
287 0 28 87 178 29 -1
288 0 28 86 179 30 -1
289 0 28 87 180 31 -1
290 0 29 128 171 10 -1
291 0 29 127 172 10 8610
292 0 29 126 172 11 8611
293 0 29 126 173 10 8612
294 0 29 126 173 11 -1
295 0 29 126 174 11 -1
296 0 29 126 174 12 -1
297 0 29 125 173 13 8617
298 0 29 124 172 14 5675
299 0 29 125 172 14 8618
300 0 30 82 55 196 8667
301 0 30 83 56 196 8666
302 0 30 83 57 195 8660
303 0 30 83 57 194 -1
304 0 30 82 58 195 5329
305 0 30 83 59 195 5322
306 0 30 83 59 196 8665
307 0 30 84 60 195 5321
308 0 30 85 60 194 5606
309 0 30 85 60 195 5605
310 0 31 95 43 128 -1
311 0 31 94 43 127 6219
312 0 31 94 42 127 6218
313 0 31 95 42 128 6217
314 0 31 94 41 129 6215
315 0 31 95 40 129 6212
316 0 31 96 41 130 6216
317 0 31 95 40 131 -1
318 0 31 94 41 132 -1
319 0 31 95 40 132 -1
320 0 32 74 175 167 -1
321 0 32 75 175 168 -1
322 0 32 76 175 168 -1
323 0 32 77 176 168 -1
324 0 32 77 175 168 9364
325 0 32 78 176 168 -1
326 0 32 77 177 167 -1
327 0 32 76 177 168 -1
328 0 32 77 178 168 9363
329 0 32 78 178 168 9360
330 0 33 12 11 163 -1
331 0 33 11 12 163 -1
332 0 33 11 13 163 -1
333 0 33 12 14 162 -1
334 0 33 12 15 162 -1
335 0 33 11 16 163 -1
336 0 33 10 16 163 -1
337 0 33 9 16 164 -1
338 0 33 8 16 165 -1
339 0 33 9 17 164 -1
340 0 34 45 118 152 -1
341 0 34 46 119 152 -1
342 0 34 46 120 152 -1
343 0 34 45 120 153 -1
344 0 34 44 119 152 8554
345 0 34 45 119 153 8553
346 0 34 44 118 154 8552
347 0 34 43 117 154 8551
348 0 34 44 116 155 8557
349 0 34 43 115 156 -1
350 0 35 176 166 121 -1
351 0 35 176 166 120 -1
352 0 35 175 167 120 -1
353 0 35 175 166 119 -1
354 0 35 174 166 119 -1
355 0 35 173 166 118 7249
356 0 35 173 167 117 7248
357 0 35 173 168 117 7247
358 0 35 174 168 118 -1
359 0 35 174 168 117 -1
360 0 36 161 109 31 -1
361 0 36 161 109 30 -1
362 0 36 161 108 30 8126
363 0 36 161 108 31 -1
364 0 36 160 107 32 -1
365 0 36 160 106 31 -1
366 0 36 161 106 30 8127
367 0 36 162 106 29 -1
368 0 36 162 105 30 8125
369 0 36 162 105 31 8124
370 0 37 158 198 177 -1
371 0 37 159 199 177 -1
372 0 37 160 0 177 9930
373 0 37 160 1 178 9932
374 0 37 161 2 178 9937
375 0 37 162 2 178 9936
376 0 37 163 2 177 9939
377 0 37 163 1 178 9938
378 0 37 164 0 178 -1
379 0 37 163 199 179 -1
380 0 38 168 59 66 -1
381 0 38 168 60 67 -1
382 0 38 168 61 67 -1
383 0 38 169 61 68 -1
384 0 38 170 60 69 8769
385 0 38 169 61 70 -1
386 0 38 170 61 71 8766
387 0 38 170 61 70 8765
388 0 38 169 61 71 -1
389 0 38 169 62 72 -1
390 0 39 69 55 117 7280
391 0 39 68 54 117 -1
392 0 39 67 55 118 7284
393 0 39 66 56 118 7283
394 0 39 66 55 118 -1
395 0 39 67 55 117 -1
396 0 39 67 56 118 7282
397 0 39 66 57 118 7286
398 0 39 65 56 117 7285
399 0 39 64 56 116 -1
400 0 40 59 95 198 6563
401 0 40 60 94 197 6067
402 0 40 61 95 198 6068
403 0 40 62 96 199 6564
404 0 40 63 97 198 6567
405 0 40 62 96 197 5296
406 0 40 63 95 198 9488
407 0 40 63 95 197 -1
408 0 40 63 96 197 9489
409 0 40 64 97 198 -1
410 0 41 137 28 3 -1
411 0 41 136 27 4 -1
412 0 41 137 28 5 6975
413 0 41 137 29 4 6973
414 0 41 136 28 5 6972
415 0 41 136 27 5 6971
416 0 41 135 26 5 -1
417 0 41 135 25 6 -1
418 0 41 134 25 7 -1
419 0 41 133 26 6 -1
420 0 42 59 126 171 -1
421 0 42 60 125 171 -1
422 0 42 61 124 171 -1
423 0 42 62 125 170 -1
424 0 42 61 124 170 -1
425 0 42 62 123 169 -1
426 0 42 63 122 168 -1
427 0 42 64 123 169 -1
428 0 42 65 124 168 -1
429 0 42 65 125 169 -1
430 0 43 182 144 196 -1
431 0 43 181 145 197 -1
432 0 43 180 146 198 -1
433 0 43 180 145 199 -1
434 0 43 180 144 0 -1
435 0 43 179 144 0 -1
436 0 43 178 143 0 -1
437 0 43 177 142 199 -1
438 0 43 177 141 198 -1
439 0 43 176 140 198 -1
440 0 44 90 58 196 5091
441 0 44 91 59 197 -1
442 0 44 90 59 197 -1
443 0 44 89 60 198 -1
444 0 44 88 60 197 -1
445 0 44 88 60 196 5603
446 0 44 87 59 195 5600
447 0 44 88 58 195 5602
448 0 44 87 57 194 5395
449 0 44 88 57 194 5397
450 0 45 38 21 197 -1
451 0 45 37 22 198 -1
452 0 45 38 21 199 -1
453 0 45 39 21 198 -1
454 0 45 40 21 199 9630
455 0 45 39 20 0 -1
456 0 45 40 19 1 -1
457 0 45 41 19 0 9632
458 0 45 42 20 1 9634
459 0 45 43 20 1 9636
460 0 46 144 116 149 -1
461 0 46 144 117 150 -1
462 0 46 145 116 151 -1
463 0 46 145 115 152 -1
464 0 46 145 114 152 -1
465 0 46 144 115 151 -1
466 0 46 145 115 151 -1
467 0 46 146 116 152 -1
468 0 46 147 115 151 -1
469 0 46 146 115 152 -1
470 0 47 135 155 8 8653
471 0 47 135 154 9 8655
472 0 47 135 155 9 -1
473 0 47 136 156 10 8651
474 0 47 137 156 9 8652
475 0 47 137 156 10 8654
476 0 47 138 155 9 8650
477 0 47 138 154 8 8657
478 0 47 139 153 7 -1
479 0 47 140 152 7 -1
480 0 48 95 99 191 -1
481 0 48 96 100 191 -1
482 0 48 95 101 192 -1
483 0 48 96 101 192 -1
484 0 48 97 100 192 -1
485 0 48 97 99 191 -1
486 0 48 97 99 190 7881
487 0 48 98 100 190 -1
488 0 48 98 100 189 7884
489 0 48 99 99 189 7889
490 0 49 85 44 170 -1
491 0 49 86 43 171 -1
492 0 49 86 42 170 -1
493 0 49 86 42 171 -1
494 0 49 85 42 171 8829
495 0 49 84 41 170 8824
496 0 49 83 41 170 8826
497 0 49 82 41 169 -1
498 0 49 81 40 168 8822
499 0 49 80 40 167 -1
500 0 50 186 162 30 -1
501 0 50 185 163 29 9235
502 0 50 184 162 29 9233
503 0 50 184 162 30 -1
504 0 50 184 163 30 -1
505 0 50 183 162 29 -1
506 0 50 182 163 28 -1
507 0 50 183 164 27 -1
508 0 50 182 164 26 -1
509 0 50 183 165 25 -1
510 0 51 105 72 5 -1
511 0 51 106 72 5 6050
512 0 51 106 73 4 6051
513 0 51 105 72 3 6056
514 0 51 106 72 4 6053
515 0 51 106 71 4 6052
516 0 51 107 71 4 6059
517 0 51 108 70 3 -1
518 0 51 108 71 3 -1
519 0 51 107 72 2 6057
520 0 52 165 76 36 -1
521 0 52 164 77 37 -1
522 0 52 164 78 37 -1
523 0 52 165 78 37 6090
524 0 52 166 77 37 -1
525 0 52 166 76 38 6091
526 0 52 166 77 39 -1
527 0 52 165 76 40 6092
528 0 52 165 77 40 -1
529 0 52 165 76 41 -1
530 0 53 20 195 9 8392
531 0 53 19 194 10 8390
532 0 53 19 193 9 8394
533 0 53 19 192 8 8395
534 0 53 18 192 7 -1
535 0 53 17 192 8 8396
536 0 53 16 193 9 -1
537 0 53 17 193 10 8398
538 0 53 17 192 11 -1
539 0 53 17 193 12 -1
540 0 54 89 117 59 6101
541 0 54 90 116 59 6104
542 0 54 89 115 58 6105
543 0 54 90 116 58 -1
544 0 54 89 116 57 -1
545 0 54 90 117 58 6103
546 0 54 91 117 59 6102
547 0 54 91 118 58 -1
548 0 54 90 117 57 -1
549 0 54 91 117 57 -1
550 0 55 95 75 143 -1
551 0 55 96 76 143 -1
552 0 55 97 77 144 -1
553 0 55 96 76 145 6490
554 0 55 97 77 146 -1
555 0 55 96 76 147 6495
556 0 55 95 77 146 -1
557 0 55 96 76 146 6496
558 0 55 97 77 145 -1
559 0 55 96 77 144 6493
560 0 56 11 26 152 6695
561 0 56 11 27 151 6693
562 0 56 10 26 150 -1
563 0 56 9 26 151 6699
564 0 56 10 27 152 6694
565 0 56 11 28 151 6691
566 0 56 10 28 151 6692
567 0 56 11 29 152 -1
568 0 56 11 29 153 -1
569 0 56 11 30 153 -1
570 0 57 57 154 175 -1
571 0 57 57 155 175 9827
572 0 57 57 154 176 9828
573 0 57 57 155 177 9829
574 0 57 57 155 178 9826
575 0 57 56 155 177 9825
576 0 57 55 156 178 -1
577 0 57 54 157 178 9820
578 0 57 55 158 179 -1
579 0 57 54 159 178 -1
580 0 58 137 4 7 -1
581 0 58 138 4 6 -1
582 0 58 137 5 5 9886
583 0 58 137 4 4 9881
584 0 58 138 5 4 9883
585 0 58 139 4 3 -1
586 0 58 140 3 2 -1
587 0 58 140 3 1 -1
588 0 58 141 4 1 -1
589 0 58 141 4 0 -1
590 0 59 184 34 2 6276
591 0 59 183 35 3 6279
592 0 59 184 35 4 6278
593 0 59 185 35 5 6271
594 0 59 185 36 6 6272
595 0 59 185 35 6 -1
596 0 59 186 34 5 6273
597 0 59 185 35 4 6274
598 0 59 184 35 5 -1
599 0 59 183 36 4 -1
600 0 60 158 16 29 -1
601 0 60 158 15 29 -1
602 0 60 159 15 28 8598
603 0 60 158 15 28 8597
604 0 60 159 16 27 8594
605 0 60 158 16 27 -1
606 0 60 157 16 26 -1
607 0 60 156 15 27 -1
608 0 60 155 15 28 -1
609 0 60 155 14 29 -1
610 0 61 77 129 52 7270
611 0 61 77 130 53 7275
612 0 61 78 131 53 -1
613 0 61 78 131 52 -1
614 0 61 77 131 53 -1
615 0 61 77 132 53 7279
616 0 61 77 133 53 -1
617 0 61 78 134 52 -1
618 0 61 78 135 51 -1
619 0 61 79 134 52 -1
620 0 62 21 177 32 6655
621 0 62 22 176 33 6651
622 0 62 21 177 34 6652
623 0 62 20 177 34 6650
624 0 62 21 177 33 -1
625 0 62 22 178 34 6653
626 0 62 22 178 33 -1
627 0 62 22 179 34 6654
628 0 62 23 180 34 -1
629 0 62 22 181 34 -1
630 0 63 172 60 19 -1
631 0 63 173 61 18 -1
632 0 63 173 61 17 -1
633 0 63 173 62 18 -1
634 0 63 173 62 17 -1
635 0 63 172 62 18 -1
636 0 63 173 63 17 7531
637 0 63 174 64 16 -1
638 0 63 173 64 15 7538
639 0 63 174 63 14 7539
640 0 64 44 164 180 7041
641 0 64 43 163 181 -1
642 0 64 43 163 182 -1
643 0 64 42 164 181 -1
644 0 64 41 165 181 -1
645 0 64 41 166 182 -1
646 0 64 40 166 182 -1
647 0 64 39 167 182 -1
648 0 64 39 168 183 -1
649 0 64 40 169 183 -1
650 0 65 188 129 142 7986
651 0 65 189 128 143 7985
652 0 65 190 129 142 7984
653 0 65 189 129 141 7983
654 0 65 189 130 140 -1
655 0 65 188 131 141 -1
656 0 65 188 130 142 -1
657 0 65 188 130 143 7982
658 0 65 188 130 144 7981
659 0 65 189 131 145 -1
660 0 66 58 147 70 6951
661 0 66 57 146 70 6950
662 0 66 57 146 69 -1
663 0 66 58 145 69 6952
664 0 66 57 144 70 6956
665 0 66 58 144 71 6953
666 0 66 57 143 71 6955
667 0 66 58 142 72 7371
668 0 66 57 143 73 -1
669 0 66 56 142 74 7372
670 0 67 107 119 138 5452
671 0 67 106 119 137 -1
672 0 67 106 118 137 -1
673 0 67 107 117 137 -1
674 0 67 106 117 137 -1
675 0 67 107 118 138 5450
676 0 67 106 117 139 -1
677 0 67 106 116 138 -1
678 0 67 106 115 138 -1
679 0 67 107 114 139 -1
680 0 68 88 80 46 -1
681 0 68 88 81 45 -1
682 0 68 88 82 46 7359
683 0 68 89 82 47 7358
684 0 68 90 82 46 7357
685 0 68 91 82 45 7356
686 0 68 91 83 45 7355
687 0 68 90 83 44 -1
688 0 68 89 83 45 -1
689 0 68 90 84 46 -1
690 0 69 122 171 13 5677
691 0 69 122 172 12 5674
692 0 69 121 171 11 -1
693 0 69 120 170 11 -1
694 0 69 121 171 12 5676
695 0 69 122 171 11 -1
696 0 69 123 170 10 8614
697 0 69 122 169 11 -1
698 0 69 121 169 12 5679
699 0 69 121 170 12 -1
700 0 70 181 185 30 5960
701 0 70 180 186 31 -1
702 0 70 181 185 31 5964
703 0 70 180 184 31 -1
704 0 70 181 184 32 -1
705 0 70 181 185 32 5962
706 0 70 182 185 32 5965
707 0 70 182 184 32 -1
708 0 70 181 183 31 5961
709 0 70 182 183 30 5963
710 0 71 188 50 144 9517
711 0 71 189 49 143 9516
712 0 71 189 48 142 -1
713 0 71 190 49 143 9513
714 0 71 191 49 144 -1
715 0 71 190 49 144 7017
716 0 71 191 48 143 7019
717 0 71 192 49 142 -1
718 0 71 193 50 143 -1
719 0 71 192 51 143 9511
720 0 72 29 81 196 -1
721 0 72 29 81 197 7501
722 0 72 28 80 197 7502
723 0 72 27 79 196 6907
724 0 72 28 79 195 6905
725 0 72 28 78 194 -1
726 0 72 29 77 194 -1
727 0 72 28 76 193 7506
728 0 72 27 75 194 7509
729 0 72 26 76 195 6908
730 0 73 51 99 127 6924
731 0 73 50 98 127 -1
732 0 73 51 98 127 -1
733 0 73 50 97 128 -1
734 0 73 50 96 128 -1
735 0 73 49 97 128 -1
736 0 73 50 97 129 6922
737 0 73 51 97 129 -1
738 0 73 51 96 129 6923
739 0 73 50 96 130 -1
740 0 74 134 181 54 7553
741 0 74 134 182 53 7552
742 0 74 133 181 54 -1
743 0 74 132 182 55 7550
744 0 74 132 183 54 -1
745 0 74 131 183 54 7555
746 0 74 130 182 55 7557
747 0 74 129 182 54 -1
748 0 74 128 181 54 -1
749 0 74 127 181 53 -1
750 0 75 114 192 174 8990
751 0 75 113 192 175 -1
752 0 75 113 193 175 8997
753 0 75 112 194 174 -1
754 0 75 112 194 175 8999
755 0 75 113 195 174 8998
756 0 75 114 195 175 -1
757 0 75 113 196 176 -1
758 0 75 112 196 175 -1
759 0 75 113 196 175 -1
760 0 76 134 95 21 9982
761 0 76 135 95 22 9981
762 0 76 134 95 23 -1
763 0 76 134 94 22 -1
764 0 76 134 93 22 -1
765 0 76 135 94 21 9983
766 0 76 136 95 22 9980
767 0 76 136 96 21 -1
768 0 76 135 97 21 9984
769 0 76 134 96 20 -1
770 0 77 21 112 101 6536
771 0 77 21 113 102 9317
772 0 77 21 113 101 9318
773 0 77 20 112 101 6538
774 0 77 19 113 102 -1
775 0 77 18 114 102 -1
776 0 77 18 115 101 -1
777 0 77 17 115 101 -1
778 0 77 18 114 100 -1
779 0 77 19 114 101 6539
780 0 78 188 54 50 -1
781 0 78 189 54 51 -1
782 0 78 188 55 51 -1
783 0 78 189 56 52 -1
784 0 78 189 57 52 -1
785 0 78 189 58 52 -1
786 0 78 189 59 52 -1
787 0 78 190 60 51 -1
788 0 78 191 61 52 -1
789 0 78 191 60 52 -1
790 0 79 173 33 199 -1
791 0 79 173 32 198 -1
792 0 79 174 31 197 -1
793 0 79 175 32 197 -1
794 0 79 175 33 196 -1
795 0 79 176 34 197 -1
796 0 79 176 34 198 -1
797 0 79 176 35 198 -1
798 0 79 175 34 198 -1
799 0 79 174 35 197 -1
800 0 80 80 191 100 5343
801 0 80 80 190 99 5347
802 0 80 80 189 98 -1
803 0 80 81 189 97 -1
804 0 80 80 188 97 -1
805 0 80 79 189 97 -1
806 0 80 79 190 96 -1
807 0 80 80 191 97 5345
808 0 80 79 192 97 -1
809 0 80 80 193 97 -1
810 0 81 133 131 46 -1
811 0 81 132 132 47 -1
812 0 81 132 132 48 7308
813 0 81 131 131 47 7306
814 0 81 130 132 46 7300
815 0 81 129 131 46 -1
816 0 81 128 131 47 -1
817 0 81 129 130 48 7305
818 0 81 130 131 47 -1
819 0 81 131 132 48 7304
820 0 82 104 56 33 8495
821 0 82 104 57 33 -1
822 0 82 103 56 33 8491
823 0 82 104 55 34 -1
824 0 82 103 54 33 -1
825 0 82 104 55 33 8492
826 0 82 105 55 32 8497
827 0 82 104 55 32 -1
828 0 82 104 55 31 8493
829 0 82 104 54 32 -1
830 0 83 191 163 91 -1
831 0 83 192 164 90 5261
832 0 83 192 165 89 5262
833 0 83 193 165 90 -1
834 0 83 192 166 90 5263
835 0 83 192 167 89 -1
836 0 83 192 168 88 5265
837 0 83 193 167 87 -1
838 0 83 192 167 88 5264
839 0 83 191 168 89 5267
840 0 84 46 195 6 -1
841 0 84 47 196 6 -1
842 0 84 46 195 5 5372
843 0 84 46 195 4 5374
844 0 84 45 196 4 5373
845 0 84 45 196 3 -1
846 0 84 45 195 3 5371
847 0 84 44 195 4 5370
848 0 84 43 194 5 -1
849 0 84 42 193 6 -1
850 0 85 48 59 181 -1
851 0 85 48 59 180 -1
852 0 85 48 58 179 -1
853 0 85 47 57 180 -1
854 0 85 47 58 179 -1
855 0 85 46 58 179 -1
856 0 85 46 59 178 -1
857 0 85 46 59 179 -1
858 0 85 45 60 178 -1
859 0 85 46 59 177 -1
860 0 86 82 80 100 8276
861 0 86 83 79 99 8279
862 0 86 83 80 100 8275
863 0 86 82 79 101 -1
864 0 86 81 80 100 -1
865 0 86 80 81 101 -1
866 0 86 81 81 102 8273
867 0 86 80 82 102 -1
868 0 86 79 83 103 -1
869 0 86 78 83 103 -1
870 0 87 112 28 98 9359
871 0 87 113 27 98 -1
872 0 87 112 28 97 -1
873 0 87 113 27 96 9356
874 0 87 114 28 95 9354
875 0 87 114 29 96 -1
876 0 87 113 30 95 -1
877 0 87 112 30 94 -1
878 0 87 112 31 95 -1
879 0 87 113 31 94 -1
880 0 88 129 133 131 7123
881 0 88 128 133 130 -1
882 0 88 129 132 129 8482
883 0 88 129 132 130 7120
884 0 88 130 133 130 7125
885 0 88 130 132 130 7122
886 0 88 130 131 130 8481
887 0 88 131 130 129 8488
888 0 88 131 129 130 -1
889 0 88 131 128 129 -1
890 0 89 82 61 196 -1
891 0 89 81 62 195 -1
892 0 89 82 61 195 -1
893 0 89 83 62 195 -1
894 0 89 84 62 194 5320
895 0 89 84 62 195 -1
896 0 89 85 63 195 5419
897 0 89 86 62 196 5609
898 0 89 86 62 195 5608
899 0 89 87 61 194 -1
900 0 90 173 19 174 -1
901 0 90 173 19 175 -1
902 0 90 172 20 176 -1
903 0 90 171 19 176 -1
904 0 90 170 19 176 -1
905 0 90 170 18 177 -1
906 0 90 170 17 176 -1
907 0 90 169 16 175 -1
908 0 90 168 15 174 -1
909 0 90 169 16 173 -1
910 0 91 182 196 2 -1
911 0 91 183 196 1 9253
912 0 91 182 195 1 9256
913 0 91 181 194 0 9259
914 0 91 181 195 1 -1
915 0 91 180 195 2 -1
916 0 91 179 195 1 -1
917 0 91 180 194 0 -1
918 0 91 180 194 199 9251
919 0 91 179 195 0 9250
920 0 92 165 131 80 -1
921 0 92 165 131 81 -1
922 0 92 166 132 81 -1
923 0 92 167 131 82 5775
924 0 92 167 132 81 5776
925 0 92 168 133 82 5777
926 0 92 169 133 82 -1
927 0 92 168 134 82 5778
928 0 92 167 133 83 -1
929 0 92 167 132 84 5773
930 0 93 147 23 77 9241
931 0 93 148 24 76 9247
932 0 93 148 24 77 9246
933 0 93 147 25 78 -1
934 0 93 146 26 77 9249
935 0 93 145 25 76 9248
936 0 93 144 25 75 -1
937 0 93 143 25 76 -1
938 0 93 144 24 76 -1
939 0 93 145 23 76 -1
940 0 94 179 167 118 9625
941 0 94 180 167 118 5566
942 0 94 180 168 118 -1
943 0 94 179 169 117 9626
944 0 94 178 170 116 5563
945 0 94 178 171 117 5562
946 0 94 178 170 118 9627
947 0 94 177 170 119 5560
948 0 94 177 169 119 9623
949 0 94 178 169 120 9621
950 0 95 99 52 163 -1
951 0 95 100 53 164 -1
952 0 95 101 52 164 -1
953 0 95 100 52 163 -1
954 0 95 101 51 164 5736
955 0 95 102 51 164 -1
956 0 95 102 50 164 5733
957 0 95 102 50 163 5731
958 0 95 103 51 162 5737
959 0 95 103 52 161 -1
960 0 96 175 60 99 -1
961 0 96 176 59 100 8222
962 0 96 176 58 100 8226
963 0 96 177 58 99 8220
964 0 96 178 59 100 8221
965 0 96 178 59 101 -1
966 0 96 177 58 102 -1
967 0 96 178 58 103 8227
968 0 96 179 57 103 -1
969 0 96 179 58 103 -1
970 0 97 35 60 76 8317
971 0 97 36 61 76 -1
972 0 97 37 60 77 8311
973 0 97 38 61 77 8310
974 0 97 39 60 78 -1
975 0 97 38 61 78 -1
976 0 97 37 60 79 8312
977 0 97 36 59 79 8313
978 0 97 35 60 80 8315
979 0 97 34 61 79 8316
980 0 98 2 2 120 9307
981 0 98 2 1 119 9302
982 0 98 3 0 120 9304
983 0 98 2 0 120 9303
984 0 98 3 1 119 9305
985 0 98 2 0 118 9308
986 0 98 1 1 117 -1
987 0 98 1 1 116 -1
988 0 98 0 2 116 -1
989 0 98 199 2 116 -1
990 0 99 30 40 75 -1
991 0 99 31 40 74 7099
992 0 99 32 41 73 7098
993 0 99 31 42 74 -1
994 0 99 30 42 73 7097
995 0 99 29 41 72 7095
996 0 99 29 42 73 -1
997 0 99 29 41 74 7090
998 0 99 29 42 75 -1
999 0 99 30 42 75 -1
1000 0 100 111 48 14 -1
1001 0 100 110 49 13 -1
1002 0 100 109 50 14 7895
1003 0 100 110 50 15 7890
1004 0 100 109 50 16 -1
1005 0 100 108 51 16 -1
1006 0 100 109 52 16 7891
1007 0 100 108 52 17 7892
1008 0 100 107 52 17 7898
1009 0 100 107 51 17 7897
1010 0 101 171 16 186 8269
1011 0 101 172 16 187 -1
1012 0 101 172 15 187 8268
1013 0 101 171 15 188 8264
1014 0 101 171 14 188 8265
1015 0 101 172 14 189 -1
1016 0 101 172 13 189 8263
1017 0 101 171 13 190 -1
1018 0 101 170 13 190 -1
1019 0 101 171 13 191 -1
1020 0 102 8 108 12 6809
1021 0 102 8 109 12 6804
1022 0 102 8 110 12 6805
1023 0 102 9 111 12 -1
1024 0 102 8 111 12 6806
1025 0 102 9 111 11 6802
1026 0 102 9 112 10 -1
1027 0 102 9 112 9 -1
1028 0 102 10 113 10 -1
1029 0 102 10 112 11 -1
1030 0 103 148 99 121 9263
1031 0 103 148 100 121 -1
1032 0 103 147 99 122 9262
1033 0 103 148 99 122 -1
1034 0 103 148 100 123 -1
1035 0 103 149 99 123 -1
1036 0 103 149 100 122 -1
1037 0 103 150 101 122 9265
1038 0 103 149 102 121 -1
1039 0 103 150 102 121 -1
1040 0 104 195 124 192 -1
1041 0 104 194 125 191 9453
1042 0 104 193 126 191 9454
1043 0 104 194 126 190 9456
1044 0 104 195 126 191 9455
1045 0 104 196 127 190 -1
1046 0 104 196 128 191 9459
1047 0 104 197 127 192 -1
1048 0 104 196 126 192 9451
1049 0 104 195 127 191 9457
1050 0 105 79 168 14 -1
1051 0 105 80 169 15 7572
1052 0 105 79 170 15 -1
1053 0 105 80 170 15 -1
1054 0 105 80 171 15 7571
1055 0 105 80 172 14 -1
1056 0 105 81 172 13 7573
1057 0 105 82 171 12 7574
1058 0 105 83 170 11 -1
1059 0 105 83 169 12 -1
1060 0 106 87 128 64 6431
1061 0 106 86 127 64 6438
1062 0 106 87 126 63 6433
1063 0 106 88 127 62 6430
1064 0 106 87 126 62 6436
1065 0 106 86 127 62 -1
1066 0 106 85 126 62 -1
1067 0 106 86 127 63 6432
1068 0 106 85 126 64 -1
1069 0 106 84 127 64 -1
1070 0 107 44 0 69 -1
1071 0 107 44 1 70 9589
1072 0 107 43 0 69 9588
1073 0 107 43 199 69 9581
1074 0 107 44 0 70 9584
1075 0 107 45 0 71 9582
1076 0 107 46 1 70 -1
1077 0 107 47 1 71 -1
1078 0 107 47 1 72 -1
1079 0 107 47 2 73 -1
1080 0 108 87 131 143 5535
1081 0 108 87 131 142 5534
1082 0 108 86 130 142 5533
1083 0 108 86 130 143 5537
1084 0 108 85 129 142 5531
1085 0 108 86 129 143 5532
1086 0 108 85 128 143 -1
1087 0 108 85 129 143 5536
1088 0 108 84 130 143 5530
1089 0 108 85 130 144 -1
1090 0 109 48 199 17 -1
1091 0 109 47 199 18 -1
1092 0 109 47 199 17 -1
1093 0 109 46 0 17 -1
1094 0 109 45 199 16 9660
1095 0 109 45 199 15 -1
1096 0 109 44 198 14 -1
1097 0 109 45 199 14 9664
1098 0 109 44 199 14 -1
1099 0 109 44 199 13 9665
1100 0 110 129 134 85 -1
1101 0 110 128 134 86 -1
1102 0 110 127 133 87 -1
1103 0 110 127 134 87 -1
1104 0 110 128 135 86 -1
1105 0 110 128 136 87 -1
1106 0 110 128 137 87 -1
1107 0 110 128 136 88 -1
1108 0 110 129 137 89 -1
1109 0 110 128 138 88 -1
1110 0 111 7 67 95 8708
1111 0 111 8 66 94 8707
1112 0 111 8 67 95 -1
1113 0 111 9 66 94 -1
1114 0 111 9 65 95 -1
1115 0 111 8 65 94 -1
1116 0 111 7 65 94 -1
1117 0 111 7 64 93 -1
1118 0 111 7 65 93 8700
1119 0 111 6 66 92 8701
1120 0 112 2 105 39 -1
1121 0 112 1 104 40 6427
1122 0 112 2 104 39 6428
1123 0 112 3 103 40 6429
1124 0 112 2 104 41 -1
1125 0 112 2 105 41 -1
1126 0 112 3 106 42 -1
1127 0 112 2 106 41 -1
1128 0 112 1 107 41 -1
1129 0 112 0 106 40 -1
1130 0 113 160 195 140 6489
1131 0 113 159 194 139 -1
1132 0 113 159 195 140 6488
1133 0 113 158 196 140 6487
1134 0 113 157 197 140 6483
1135 0 113 156 198 140 9104
1136 0 113 155 197 140 9103
1137 0 113 156 197 139 9100
1138 0 113 155 198 138 -1
1139 0 113 154 197 139 9102
1140 0 114 171 165 9 8510
1141 0 114 172 166 8 -1
1142 0 114 171 167 9 8511
1143 0 114 170 167 9 -1
1144 0 114 170 166 8 8512
1145 0 114 169 166 9 8513
1146 0 114 170 167 10 -1
1147 0 114 170 166 11 -1
1148 0 114 171 165 10 -1
1149 0 114 172 166 10 -1
1150 0 115 164 128 111 6286
1151 0 115 163 129 111 6287
1152 0 115 163 128 112 6281
1153 0 115 162 129 113 6280
1154 0 115 162 128 114 9416
1155 0 115 161 129 113 6285
1156 0 115 162 128 113 9417
1157 0 115 161 127 112 -1
1158 0 115 160 126 111 -1
1159 0 115 160 126 112 9418
1160 0 116 197 96 25 -1
1161 0 116 198 95 26 9504
1162 0 116 197 94 25 9502
1163 0 116 196 95 26 -1
1164 0 116 197 96 26 9503
1165 0 116 197 97 25 9505
1166 0 116 198 96 24 -1
1167 0 116 198 95 23 -1
1168 0 116 197 96 23 -1
1169 0 116 196 95 24 9500
1170 0 117 47 44 101 -1
1171 0 117 48 43 101 -1
1172 0 117 49 43 100 -1
1173 0 117 50 44 100 -1
1174 0 117 51 45 100 8807
1175 0 117 51 46 101 8800
1176 0 117 51 47 101 8801
1177 0 117 51 46 100 8805
1178 0 117 52 47 99 8803
1179 0 117 51 46 98 8809
1180 0 118 51 112 138 8400
1181 0 118 52 111 138 -1
1182 0 118 51 111 139 8402
1183 0 118 52 110 138 8404
1184 0 118 52 110 137 8405
1185 0 118 51 109 137 8407
1186 0 118 50 108 138 8406
1187 0 118 51 107 139 8409
1188 0 118 50 106 138 -1
1189 0 118 49 106 138 -1
1190 0 119 199 154 180 -1
1191 0 119 0 155 180 -1
1192 0 119 1 155 179 -1
1193 0 119 1 155 180 -1
1194 0 119 2 154 181 -1
1195 0 119 2 155 180 -1
1196 0 119 1 156 181 -1
1197 0 119 1 157 182 -1
1198 0 119 0 157 181 -1
1199 0 119 0 157 180 -1
1200 0 120 191 113 198 5449
1201 0 120 191 112 198 5448
1202 0 120 191 111 198 -1
1203 0 120 190 111 199 -1
1204 0 120 189 112 199 5447
1205 0 120 189 113 0 5446
1206 0 120 190 113 0 5444
1207 0 120 189 114 199 -1
1208 0 120 190 113 198 -1
1209 0 120 190 114 199 5445
1210 0 121 9 171 135 -1
1211 0 121 8 171 134 -1
1212 0 121 9 170 134 6143
1213 0 121 9 171 133 6142
1214 0 121 9 172 132 6140
1215 0 121 10 172 132 -1
1216 0 121 9 171 131 6141
1217 0 121 8 170 132 -1
1218 0 121 7 170 133 -1
1219 0 121 6 170 134 6144
1220 0 122 195 124 90 6735
1221 0 122 196 125 90 6731
1222 0 122 195 125 91 -1
1223 0 122 196 126 90 -1
1224 0 122 196 125 91 6736
1225 0 122 195 125 92 -1
1226 0 122 194 125 91 6734
1227 0 122 194 124 92 -1
1228 0 122 195 124 93 -1
1229 0 122 196 125 92 -1
1230 0 123 182 2 112 9690
1231 0 123 183 1 113 5559
1232 0 123 182 1 112 9691
1233 0 123 183 1 111 9692
1234 0 123 183 0 112 9693
1235 0 123 182 199 112 9694
1236 0 123 183 0 111 -1
1237 0 123 184 199 110 9698
1238 0 123 184 0 111 -1
1239 0 123 184 199 111 9697
1240 0 124 152 22 54 9603
1241 0 124 152 21 55 9600
1242 0 124 151 22 54 9601
1243 0 124 151 22 55 -1
1244 0 124 152 23 56 9604
1245 0 124 153 24 57 -1
1246 0 124 154 23 57 9606
1247 0 124 153 22 57 -1
1248 0 124 154 21 57 9607
1249 0 124 155 22 57 9608
1250 0 125 63 21 4 6676
1251 0 125 64 20 5 6677
1252 0 125 63 21 6 6678
1253 0 125 64 20 7 -1
1254 0 125 64 19 6 -1
1255 0 125 63 20 5 6673
1256 0 125 62 21 6 -1
1257 0 125 61 20 5 6671
1258 0 125 60 19 6 6672
1259 0 125 61 20 6 6670
1260 0 126 21 93 41 -1
1261 0 126 20 92 41 -1
1262 0 126 21 91 41 6619
1263 0 126 20 90 41 6617
1264 0 126 20 90 40 6613
1265 0 126 21 89 39 6612
1266 0 126 20 89 38 -1
1267 0 126 19 88 39 6611
1268 0 126 19 88 38 -1
1269 0 126 18 88 37 -1
1270 0 127 9 133 90 6112
1271 0 127 9 132 91 -1
1272 0 127 10 131 90 -1