ITEM: TIMESTEP
0
ITEM: NUMBER OF ATOMS
10000
ITEM: BOX BOUNDS pp pp pp
0 200
0 200
0 200
ITEM: ATOMS id type mol x y z bP
0 0 0 55 0 170 -1
1 0 0 54 0 169 7230
2 0 0 53 199 168 7231
3 0 0 52 0 168 -1
4 0 0 53 0 167 7236
5 0 0 52 0 166 7238
6 0 0 52 1 167 7237
7 0 0 53 2 167 -1
8 0 0 54 2 168 -1
9 0 0 53 3 169 -1
10 0 1 194 17 93 5042
11 0 1 193 16 94 -1
12 0 1 194 17 94 5043
13 0 1 193 16 95 5046
14 0 1 192 15 95 -1
15 0 1 191 15 95 5685
16 0 1 192 16 96 5048
17 0 1 191 16 95 -1
18 0 1 191 15 94 -1
19 0 1 190 15 94 -1
20 0 2 122 147 199 -1
21 0 2 122 146 0 -1
22 0 2 122 147 1 -1
23 0 2 123 147 2 -1
24 0 2 124 148 3 6579
25 0 2 124 149 3 -1
26 0 2 123 148 3 6572
27 0 2 124 149 4 6574
28 0 2 124 149 5 6576
29 0 2 123 150 6 6575
30 0 3 80 130 49 -1
31 0 3 81 130 50 -1
32 0 3 80 129 49 -1
33 0 3 79 129 49 -1
34 0 3 78 128 50 -1
35 0 3 79 128 51 -1
36 0 3 79 127 51 8922
37 0 3 78 127 52 8920
38 0 3 78 126 51 8923
39 0 3 79 125 52 8921
40 0 4 133 182 166 -1
41 0 4 134 183 165 -1
42 0 4 133 184 164 8295
43 0 4 132 185 163 8299
44 0 4 131 184 163 8292
45 0 4 132 183 162 8291
46 0 4 132 182 163 -1
47 0 4 132 181 164 8290
48 0 4 131 181 164 -1
49 0 4 132 182 165 8294
50 0 5 138 85 25 -1
51 0 5 137 85 24 -1
52 0 5 138 86 24 5515
53 0 5 138 86 23 5512
54 0 5 137 86 24 5513
55 0 5 137 87 23 -1
56 0 5 136 86 24 -1
57 0 5 135 85 23 5514
58 0 5 134 85 23 -1
59 0 5 133 84 24 -1
60 0 6 9 179 31 5608
61 0 6 8 178 31 -1
62 0 6 7 177 31 -1
63 0 6 6 177 32 -1
64 0 6 6 176 33 5603
65 0 6 7 177 32 -1
66 0 6 7 176 33 5604
67 0 6 8 176 34 -1
68 0 6 8 176 33 -1
69 0 6 7 176 32 -1
70 0 7 58 63 52 -1
71 0 7 58 64 53 8872
72 0 7 58 63 53 8875
73 0 7 58 64 54 8877
74 0 7 57 64 54 -1
75 0 7 57 65 53 8876
76 0 7 57 66 54 8870
77 0 7 57 65 54 8871
78 0 7 58 65 55 -1
79 0 7 58 66 55 -1
80 0 8 97 37 49 -1
81 0 8 98 36 49 7170
82 0 8 99 36 50 -1
83 0 8 100 36 50 -1
84 0 8 100 36 51 7174
85 0 8 100 37 51 7177
86 0 8 99 37 50 -1
87 0 8 100 37 49 7173
88 0 8 101 38 50 -1
89 0 8 100 39 49 7175
90 0 9 54 87 62 -1
91 0 9 55 86 62 6548
92 0 9 55 86 63 6542
93 0 9 55 87 64 -1
94 0 9 54 87 65 -1
95 0 9 53 86 64 6546
96 0 9 52 85 64 -1
97 0 9 53 84 63 6549
98 0 9 53 84 62 -1
99 0 9 52 84 63 -1
100 0 10 21 133 173 6815
101 0 10 20 133 173 -1
102 0 10 19 133 172 -1
103 0 10 19 133 171 -1
104 0 10 19 134 170 6810
105 0 10 20 134 170 -1
106 0 10 21 133 171 6811
107 0 10 21 134 171 6816
108 0 10 21 133 172 6813
109 0 10 22 133 173 6814
110 0 11 62 120 110 -1
111 0 11 61 120 110 -1
112 0 11 61 121 111 -1
113 0 11 60 120 112 6256
114 0 11 60 119 112 -1
115 0 11 59 118 113 6254
116 0 11 58 118 114 -1
117 0 11 58 117 115 7349
118 0 11 57 117 114 7344
119 0 11 58 116 114 7342
120 0 12 11 114 110 -1
121 0 12 11 114 109 -1
122 0 12 11 113 109 6344
123 0 12 11 112 108 -1
124 0 12 12 113 108 -1
125 0 12 13 112 109 -1
126 0 12 13 112 110 -1
127 0 12 14 111 111 6340
128 0 12 15 112 110 6348
129 0 12 14 111 110 6346
130 0 13 98 106 55 6447
131 0 13 99 105 55 6448
132 0 13 99 105 56 6449
133 0 13 98 105 55 -1
134 0 13 99 105 54 -1
135 0 13 99 106 53 -1
136 0 13 98 107 53 6446
137 0 13 99 107 52 -1
138 0 13 98 108 53 -1
139 0 13 98 108 52 -1
140 0 14 162 18 179 6070
141 0 14 161 18 180 9150
142 0 14 162 17 180 6072
143 0 14 163 16 181 6076
144 0 14 163 17 182 6077
145 0 14 164 18 183 9157
146 0 14 165 19 183 -1
147 0 14 165 20 183 9158
148 0 14 164 21 184 -1
149 0 14 165 21 184 -1
150 0 15 180 72 92 8179
151 0 15 181 73 91 8177
152 0 15 181 73 92 6556
153 0 15 182 73 93 6553
154 0 15 181 72 94 5571
155 0 15 182 73 95 -1
156 0 15 182 74 96 5573
157 0 15 181 73 96 5574
158 0 15 182 74 97 -1
159 0 15 183 75 96 -1
160 0 16 146 166 155 9312
161 0 16 145 165 154 -1
162 0 16 145 164 153 9313
163 0 16 144 165 154 9319
164 0 16 145 164 154 9318
165 0 16 146 165 154 9311
166 0 16 146 166 153 9310
167 0 16 145 166 152 -1
168 0 16 146 165 152 -1
169 0 16 145 165 151 -1
170 0 17 133 49 190 9041
171 0 17 132 49 190 -1
172 0 17 132 48 190 9043
173 0 17 131 49 189 9042
174 0 17 130 48 188 9047
175 0 17 131 48 189 9045
176 0 17 130 47 190 9046
177 0 17 131 47 190 9044
178 0 17 130 46 190 -1
179 0 17 131 45 191 -1
180 0 18 111 122 66 -1
181 0 18 111 121 67 -1
182 0 18 110 121 68 -1
183 0 18 111 120 69 7073
184 0 18 110 120 69 -1
185 0 18 109 119 70 7075
186 0 18 110 118 71 7074
187 0 18 111 119 71 5338
188 0 18 111 120 71 7076
189 0 18 112 119 70 5339
190 0 19 3 175 148 -1
191 0 19 3 176 149 -1
192 0 19 4 177 150 -1
193 0 19 5 177 150 -1
194 0 19 6 178 151 -1
195 0 19 5 177 151 -1
196 0 19 5 178 150 -1
197 0 19 6 177 150 -1
198 0 19 7 177 151 -1
199 0 19 8 178 151 -1
200 0 20 110 89 41 -1
201 0 20 109 90 41 -1
202 0 20 108 90 42 -1
203 0 20 107 91 43 -1
204 0 20 106 91 42 -1
205 0 20 106 92 42 -1
206 0 20 107 93 42 -1
207 0 20 108 94 42 -1
208 0 20 109 93 41 -1
209 0 20 110 92 42 -1
210 0 21 79 176 102 9546
211 0 21 78 176 103 9545
212 0 21 77 176 103 -1
213 0 21 76 176 102 9548
214 0 21 76 177 102 9544
215 0 21 75 178 102 -1
216 0 21 76 179 102 -1
217 0 21 75 179 101 -1
218 0 21 74 179 100 -1
219 0 21 73 178 100 -1
220 0 22 69 25 194 7069
221 0 22 69 25 195 7061
222 0 22 70 25 195 7060
223 0 22 70 26 194 7068
224 0 22 71 26 194 7067
225 0 22 71 27 194 -1
226 0 22 71 28 195 -1
227 0 22 71 29 194 -1
228 0 22 72 30 194 -1
229 0 22 71 29 195 -1
230 0 23 133 108 197 5212
231 0 23 134 109 197 6133
232 0 23 135 108 196 -1
233 0 23 134 109 196 5213
234 0 23 133 110 195 5215
235 0 23 132 111 196 -1
236 0 23 132 112 196 5219
237 0 23 132 113 197 -1
238 0 23 131 112 197 -1
239 0 23 131 112 196 -1
240 0 24 32 160 142 -1
241 0 24 31 159 143 -1
242 0 24 30 160 144 -1
243 0 24 29 159 144 5452
244 0 24 30 158 144 -1
245 0 24 31 158 144 -1
246 0 24 32 159 144 5453
247 0 24 33 158 145 -1
248 0 24 34 158 144 -1
249 0 24 35 159 145 -1
250 0 25 149 11 166 -1
251 0 25 148 11 166 -1
252 0 25 147 12 165 -1
253 0 25 148 13 166 8209
254 0 25 149 14 165 8208
255 0 25 148 13 165 -1
256 0 25 147 13 164 8206
257 0 25 146 13 164 -1
258 0 25 145 13 164 8201
259 0 25 144 12 164 -1
260 0 26 135 25 101 5530
261 0 26 135 24 100 5536
262 0 26 134 23 101 5535
263 0 26 135 24 101 -1
264 0 26 135 25 102 -1
265 0 26 136 26 101 5531
266 0 26 135 27 100 -1
267 0 26 134 26 100 -1
268 0 26 133 25 100 5534
269 0 26 134 24 99 5533
270 0 27 174 134 107 -1
271 0 27 173 135 107 7892
272 0 27 172 136 106 -1
273 0 27 171 137 107 7890
274 0 27 172 138 108 7899
275 0 27 172 139 107 -1
276 0 27 171 138 107 7897
277 0 27 171 137 106 7891
278 0 27 171 138 105 -1
279 0 27 171 138 106 -1
280 0 28 52 138 92 5352
281 0 28 52 139 91 -1
282 0 28 53 138 90 5354
283 0 28 52 137 90 5355
284 0 28 51 137 91 5350
285 0 28 51 136 92 -1
286 0 28 52 135 92 5357
287 0 28 51 134 92 5358
288 0 28 52 134 93 -1
289 0 28 53 135 94 -1
290 0 29 4 44 191 -1
291 0 29 3 45 192 -1
292 0 29 2 45 192 -1
293 0 29 1 44 192 -1
294 0 29 1 45 191 -1
295 0 29 0 45 190 -1
296 0 29 1 44 189 -1
297 0 29 2 45 188 -1
298 0 29 3 44 187 -1
299 0 29 2 45 187 -1
300 0 30 85 113 73 -1
301 0 30 86 112 72 -1
302 0 30 87 113 72 -1
303 0 30 86 112 71 -1
304 0 30 85 112 72 -1
305 0 30 84 112 71 -1
306 0 30 85 111 70 6323
307 0 30 84 111 70 6321
308 0 30 85 110 69 -1
309 0 30 86 110 68 -1
310 0 31 124 125 62 9401
311 0 31 125 125 62 9404
312 0 31 124 126 63 9402
313 0 31 125 127 62 9408
314 0 31 125 127 61 -1
315 0 31 125 126 62 9403
316 0 31 126 125 61 9406
317 0 31 127 124 60 -1
318 0 31 126 125 60 9405
319 0 31 125 125 60 -1
320 0 32 150 112 155 8737
321 0 32 150 111 155 8732
322 0 32 149 111 154 8735
323 0 32 149 110 153 8739
324 0 32 149 109 153 -1
325 0 32 148 110 153 -1
326 0 32 149 110 152 -1
327 0 32 149 111 153 8738
328 0 32 148 110 152 -1
329 0 32 149 111 152 -1
330 0 33 118 85 65 6525
331 0 33 118 85 64 -1
332 0 33 117 85 65 6524
333 0 33 116 86 66 6522
334 0 33 116 87 65 -1
335 0 33 115 87 66 6521
336 0 33 115 86 67 -1
337 0 33 116 85 68 -1
338 0 33 117 86 68 -1
339 0 33 118 86 69 -1
340 0 34 151 68 183 -1
341 0 34 152 67 183 5071
342 0 34 153 67 182 9565
343 0 34 152 68 181 9564
344 0 34 151 67 182 5070
345 0 34 151 67 181 9566
346 0 34 150 66 180 -1
347 0 34 151 65 181 9567
348 0 34 150 64 182 -1
349 0 34 149 63 182 -1
350 0 35 54 57 119 -1
351 0 35 55 57 119 9981
352 0 35 56 58 119 9989
353 0 35 55 57 118 9982
354 0 35 55 56 117 9985
355 0 35 54 56 116 -1
356 0 35 54 55 117 -1
357 0 35 54 54 117 -1
358 0 35 53 53 117 -1
359 0 35 53 54 117 -1
360 0 36 4 159 159 -1
361 0 36 3 158 160 -1
362 0 36 2 157 161 -1
363 0 36 1 156 162 -1
364 0 36 0 155 161 7875
365 0 36 0 156 160 7873
366 0 36 1 155 159 7874
367 0 36 2 154 160 7871
368 0 36 3 153 159 5652
369 0 36 3 154 159 5654
370 0 37 108 16 161 -1
371 0 37 107 16 162 -1
372 0 37 106 17 162 -1
373 0 37 106 18 162 -1
374 0 37 105 17 163 7836
375 0 37 104 18 162 7833
376 0 37 104 19 161 -1
377 0 37 103 19 162 -1
378 0 37 104 18 161 -1
379 0 37 105 17 161 7837
380 0 38 192 16 95 5047
381 0 38 191 16 94 -1
382 0 38 192 15 94 -1
383 0 38 191 14 95 5683
384 0 38 190 15 96 5680
385 0 38 190 16 97 5681
386 0 38 190 16 98 -1
387 0 38 191 16 99 5049
388 0 38 190 17 99 -1
389 0 38 191 16 100 -1
390 0 39 149 74 179 -1
391 0 39 149 75 178 9759
392 0 39 148 75 179 -1
393 0 39 148 76 179 9758
394 0 39 147 77 180 -1
395 0 39 148 76 181 -1
396 0 39 148 75 180 9753
397 0 39 147 75 179 9752
398 0 39 148 75 178 9751
399 0 39 149 75 177 -1
400 0 40 163 32 0 7330
401 0 40 163 32 1 7334
402 0 40 162 31 2 7331
403 0 40 163 31 1 -1
404 0 40 163 32 2 -1
405 0 40 164 32 2 -1
406 0 40 165 31 3 7337
407 0 40 165 30 2 -1
408 0 40 166 29 2 -1
409 0 40 165 29 1 -1
410 0 41 195 86 25 8968
411 0 41 194 85 26 8966
412 0 41 194 86 26 8961
413 0 41 194 87 25 6399
414 0 41 194 88 26 -1
415 0 41 193 87 27 -1
416 0 41 194 87 27 8963
417 0 41 195 86 28 -1
418 0 41 195 85 29 -1
419 0 41 195 84 30 -1
420 0 42 9 186 13 -1
421 0 42 8 186 12 7612
422 0 42 8 186 11 7613
423 0 42 9 185 10 7611
424 0 42 8 184 11 7614
425 0 42 7 183 12 -1
426 0 42 8 184 13 -1
427 0 42 7 184 13 -1
428 0 42 7 183 14 7619
429 0 42 7 184 15 7618
430 0 43 112 36 54 9122
431 0 43 111 37 55 -1
432 0 43 112 38 55 -1
433 0 43 113 38 54 9120
434 0 43 114 37 53 -1
435 0 43 114 37 54 9124
436 0 43 115 38 53 -1
437 0 43 115 37 53 -1
438 0 43 115 36 53 -1
439 0 43 114 36 53 -1
440 0 44 173 97 79 8798
441 0 44 172 97 78 8795
442 0 44 172 96 79 8794
443 0 44 172 95 79 -1
444 0 44 171 94 80 -1
445 0 44 171 93 79 8790
446 0 44 170 93 78 -1
447 0 44 171 94 78 -1
448 0 44 170 95 79 -1
449 0 44 169 94 78 -1
450 0 45 2 19 23 9589
451 0 45 3 20 23 9588
452 0 45 2 21 22 9587
453 0 45 3 22 21 -1
454 0 45 2 23 22 -1
455 0 45 1 23 22 -1
456 0 45 0 23 22 -1
457 0 45 199 22 23 9582
458 0 45 198 23 22 9584
459 0 45 199 23 22 9581
460 0 46 38 24 97 -1
461 0 46 39 24 97 -1
462 0 46 40 25 98 -1
463 0 46 41 26 99 -1
464 0 46 40 25 100 9788
465 0 46 40 26 99 9784
466 0 46 41 27 99 9785
467 0 46 42 28 99 -1
468 0 46 41 27 100 -1
469 0 46 40 28 101 9781
470 0 47 179 92 165 -1
471 0 47 180 92 164 5869
472 0 47 179 91 165 5867
473 0 47 179 92 166 5860
474 0 47 178 92 165 -1
475 0 47 178 92 166 5861
476 0 47 178 93 167 5862
477 0 47 177 93 168 -1
478 0 47 176 92 167 5865
479 0 47 176 93 166 -1
480 0 48 193 30 184 8483
481 0 48 193 29 185 8485
482 0 48 194 29 185 8486
483 0 48 195 30 185 8484
484 0 48 196 29 185 -1
485 0 48 196 28 184 8482
486 0 48 195 29 183 8481
487 0 48 196 29 183 -1
488 0 48 197 30 182 -1
489 0 48 198 29 181 -1
490 0 49 63 159 14 8469
491 0 49 64 159 14 8464
492 0 49 63 160 14 -1
493 0 49 64 160 15 8468
494 0 49 65 159 16 -1
495 0 49 66 160 16 -1
496 0 49 66 159 16 -1
497 0 49 65 160 15 -1
498 0 49 64 160 14 8466
499 0 49 64 161 14 8463
500 0 50 150 12 133 -1
501 0 50 150 11 134 -1
502 0 50 150 10 135 8311
503 0 50 151 10 135 -1
504 0 50 150 11 135 8985
505 0 50 151 11 136 8312
506 0 50 151 12 135 6002
507 0 50 152 11 136 -1
508 0 50 153 12 135 -1
509 0 50 152 13 136 6000
510 0 51 10 18 162 7304
511 0 51 9 17 163 7302
512 0 51 10 17 162 7301
513 0 51 10 17 161 7303
514 0 51 10 17 160 7308
515 0 51 10 16 159 -1
516 0 51 11 17 159 7307
517 0 51 12 16 160 7306
518 0 51 13 15 160 -1
519 0 51 14 14 161 -1
520 0 52 173 133 12 5225
521 0 52 173 134 13 5227
522 0 52 174 134 14 5226
523 0 52 175 134 14 -1
524 0 52 176 133 15 5229
525 0 52 175 133 15 -1
526 0 52 174 132 14 -1
527 0 52 174 132 13 -1
528 0 52 173 133 14 -1
529 0 52 172 132 15 5224
530 0 53 63 116 109 -1
531 0 53 64 116 109 -1
532 0 53 63 116 108 -1
533 0 53 64 115 109 -1
534 0 53 63 115 110 -1
535 0 53 63 115 111 -1
536 0 53 62 116 112 6251
537 0 53 62 116 113 -1
538 0 53 62 117 112 6250
539 0 53 61 118 112 6258
540 0 54 49 22 121 8016
541 0 54 48 23 120 8013
542 0 54 49 24 119 -1
543 0 54 48 24 118 -1
544 0 54 48 24 119 -1
545 0 54 47 23 120 8014
546 0 54 46 22 121 -1
547 0 54 45 23 120 8011
548 0 54 45 24 119 8010
549 0 54 45 24 120 -1
550 0 55 99 44 55 6175
551 0 55 98 44 56 6172
552 0 55 99 43 56 6176
553 0 55 99 42 57 6178
554 0 55 98 43 58 6179
555 0 55 99 43 57 6177
556 0 55 99 42 58 -1
557 0 55 98 41 59 -1
558 0 55 98 41 58 -1
559 0 55 97 41 57 -1
560 0 56 81 58 102 9946
561 0 56 80 58 102 9943
562 0 56 80 58 101 9942
563 0 56 81 59 102 9945
564 0 56 82 58 101 9948
565 0 56 82 58 100 9947
566 0 56 81 57 101 -1
567 0 56 80 56 101 -1
568 0 56 79 55 102 9940
569 0 56 78 56 102 -1
570 0 57 38 62 47 -1
571 0 57 37 63 46 5403
572 0 57 38 62 46 5407
573 0 57 39 61 45 -1
574 0 57 38 62 44 5406
575 0 57 39 62 44 5404
576 0 57 38 63 43 5402
577 0 57 37 64 43 -1
578 0 57 38 64 43 -1
579 0 57 39 65 44 -1
580 0 58 65 180 37 5853
581 0 58 64 181 38 5851
582 0 58 63 182 38 -1
583 0 58 64 183 38 5858
584 0 58 65 183 39 5857
585 0 58 65 182 38 5856
586 0 58 65 181 39 5854
587 0 58 64 180 39 5852
588 0 58 65 179 39 -1
589 0 58 66 180 39 -1
590 0 59 49 97 145 -1
591 0 59 50 98 145 -1
592 0 59 49 99 146 6040
593 0 59 49 99 147 -1
594 0 59 49 100 147 6047
595 0 59 50 100 146 6046
596 0 59 51 100 146 -1
597 0 59 52 100 147 -1
598 0 59 51 101 147 -1
599 0 59 50 101 147 -1
600 0 60 6 111 179 -1
601 0 60 6 112 180 6096
602 0 60 5 112 179 6090
603 0 60 4 112 180 6091
604 0 60 3 111 179 6092
605 0 60 2 112 178 -1
606 0 60 3 113 179 -1
607 0 60 4 114 178 -1
608 0 60 5 114 178 6093
609 0 60 6 113 177 6097
610 0 61 146 11 136 -1
611 0 61 147 11 136 8315
612 0 61 148 10 136 8986
613 0 61 148 10 137 -1
614 0 61 148 11 137 -1
615 0 61 147 12 136 -1
616 0 61 147 13 135 -1
617 0 61 147 12 134 8318
618 0 61 148 13 135 8316
619 0 61 149 14 135 -1
620 0 62 199 61 169 5447
621 0 62 199 60 168 5443
622 0 62 0 61 167 5442
623 0 62 1 60 166 5441
624 0 62 0 60 165 -1
625 0 62 0 60 166 5440
626 0 62 199 61 166 8671
627 0 62 199 61 165 8678
628 0 62 199 60 166 -1
629 0 62 198 59 167 5446
630 0 63 40 87 165 5204
631 0 63 40 88 165 5205
632 0 63 39 89 166 5207
633 0 63 39 88 167 -1
634 0 63 40 89 168 -1
635 0 63 41 90 167 -1
636 0 63 42 89 168 -1
637 0 63 41 88 167 -1
638 0 63 41 87 166 -1
639 0 63 41 86 166 5203
640 0 64 138 80 44 -1
641 0 64 137 80 44 -1
642 0 64 136 79 43 6852
643 0 64 135 78 42 6853
644 0 64 135 78 41 6854
645 0 64 134 78 42 6856
646 0 64 134 79 42 6850
647 0 64 133 78 42 -1
648 0 64 133 77 42 6858
649 0 64 133 78 43 -1
650 0 65 35 22 133 -1
651 0 65 35 22 132 -1
652 0 65 34 22 132 -1
653 0 65 34 21 131 7447
654 0 65 35 21 131 -1
655 0 65 34 20 130 7446
656 0 65 33 21 130 7444
657 0 65 34 20 129 7440
658 0 65 34 19 130 -1
659 0 65 33 19 131 7443
660 0 66 145 121 8 7889
661 0 66 145 120 9 -1
662 0 66 144 119 8 7885
663 0 66 143 119 9 7884
664 0 66 143 118 8 7886
665 0 66 144 119 9 -1
666 0 66 143 118 10 7880
667 0 66 142 117 10 -1
668 0 66 141 116 9 -1
669 0 66 142 117 8 -1
670 0 67 104 56 181 -1
671 0 67 104 55 181 -1
672 0 67 105 56 182 -1
673 0 67 106 55 183 -1
674 0 67 107 54 184 -1
675 0 67 108 54 183 7022
676 0 67 109 55 183 7026
677 0 67 110 55 183 7027
678 0 67 109 55 184 7024
679 0 67 110 54 185 -1
680 0 68 80 69 149 -1
681 0 68 79 68 149 6371
682 0 68 78 68 150 6378
683 0 68 77 68 150 -1
684 0 68 76 67 149 -1
685 0 68 77 66 149 6379
686 0 68 77 66 150 -1
687 0 68 78 67 150 6372
688 0 68 79 66 149 6373
689 0 68 79 66 148 6375
690 0 69 65 44 193 -1
691 0 69 65 45 193 -1
692 0 69 66 46 194 -1
693 0 69 67 47 195 5313
694 0 69 68 47 196 -1
695 0 69 69 46 196 5318
696 0 69 70 46 196 -1
697 0 69 71 45 195 5315
698 0 69 71 44 196 -1
699 0 69 71 43 195 -1
700 0 70 105 192 54 8188
701 0 70 106 192 53 8182
702 0 70 107 192 53 -1
703 0 70 106 192 54 8181
704 0 70 105 193 54 8184
705 0 70 104 192 53 8186
706 0 70 105 191 52 -1
707 0 70 104 192 51 -1
708 0 70 103 193 52 -1
709 0 70 104 192 52 8185
710 0 71 194 190 99 9218
711 0 71 193 189 99 -1
712 0 71 194 190 100 9219
713 0 71 194 189 101 9217
714 0 71 195 188 102 9216
715 0 71 194 188 101 9214
716 0 71 195 188 100 9215
717 0 71 195 187 99 9210
718 0 71 196 187 99 9211
719 0 71 197 186 99 9212
720 0 72 35 23 152 -1
721 0 72 36 24 151 8651
722 0 72 36 23 150 8653
723 0 72 37 23 149 -1
724 0 72 38 22 150 8650
725 0 72 39 21 151 8656
726 0 72 38 20 150 8659
727 0 72 37 21 150 8652
728 0 72 36 20 149 -1
729 0 72 35 19 149 -1
730 0 73 94 143 73 -1
731 0 73 93 144 73 9745
732 0 73 92 143 72 -1
733 0 73 93 143 71 9744
734 0 73 94 143 72 -1
735 0 73 93 142 71 9746
736 0 73 92 141 72 -1
737 0 73 92 141 73 9743
738 0 73 91 141 73 -1
739 0 73 90 141 74 9748
740 0 74 164 155 30 7052
741 0 74 165 156 29 -1
742 0 74 166 155 28 7053
743 0 74 165 155 28 7058
744 0 74 164 156 27 -1
745 0 74 165 156 28 7051
746 0 74 164 156 28 7059
747 0 74 165 157 28 7056
748 0 74 164 158 28 -1
749 0 74 165 157 27 -1
750 0 75 119 181 47 -1
751 0 75 119 182 47 -1
752 0 75 119 182 46 7598
753 0 75 118 183 47 5303
754 0 75 118 184 48 7590
755 0 75 117 183 47 5300
756 0 75 117 184 48 5308
757 0 75 116 183 49 5306
758 0 75 117 183 50 -1
759 0 75 116 182 51 -1
760 0 76 82 141 81 5706
761 0 76 83 142 80 -1
762 0 76 82 142 80 -1
763 0 76 82 143 79 -1
764 0 76 83 144 80 -1
765 0 76 83 143 81 5701
766 0 76 84 142 82 5700
767 0 76 85 141 81 -1
768 0 76 84 140 81 5705
769 0 76 85 140 81 5707
770 0 77 55 15 124 -1
771 0 77 56 14 123 -1
772 0 77 56 15 122 -1
773 0 77 57 14 122 -1
774 0 77 56 15 123 7314
775 0 77 55 16 124 7312
776 0 77 56 16 124 5417
777 0 77 57 16 125 5416
778 0 77 57 16 126 5414
779 0 77 57 15 125 5415
780 0 78 141 30 189 -1
781 0 78 140 29 189 5293
782 0 78 140 29 188 5294
783 0 78 141 30 187 -1
784 0 78 141 30 186 -1
785 0 78 141 29 187 -1
786 0 78 141 28 188 5296
787 0 78 142 27 189 5298
788 0 78 142 27 188 5297
789 0 78 143 26 187 -1
790 0 79 96 42 0 -1
791 0 79 97 42 199 -1
792 0 79 97 42 0 5909
793 0 79 97 43 1 5907
794 0 79 98 43 1 5906
795 0 79 97 44 2 -1
796 0 79 98 44 3 -1
797 0 79 99 43 4 5901
798 0 79 98 42 4 -1
799 0 79 99 42 3 5905
800 0 80 39 147 82 -1
801 0 80 38 146 81 6480
802 0 80 39 147 80 6485
803 0 80 40 148 80 -1
804 0 80 40 149 81 6890
805 0 80 39 149 80 6891
806 0 80 38 148 79 6894
807 0 80 37 148 79 6481
808 0 80 38 147 80 6893
809 0 80 38 148 81 6482
810 0 81 194 32 91 -1
811 0 81 195 33 92 -1
812 0 81 195 32 92 6660
813 0 81 194 31 92 6665
814 0 81 195 30 93 6661
815 0 81 196 31 92 6667
816 0 81 197 31 92 -1
817 0 81 198 30 91 6669
818 0 81 197 29 91 6668
819 0 81 196 30 91 6666
820 0 82 161 159 144 -1
821 0 82 162 160 145 -1
822 0 82 161 161 146 -1
823 0 82 162 161 147 -1
824 0 82 161 160 147 -1
825 0 82 160 161 147 7578
826 0 82 159 162 148 7579
827 0 82 158 161 147 7574
828 0 82 158 160 148 -1
829 0 82 159 161 147 7576
830 0 83 192 86 180 5893
831 0 83 191 85 180 5894
832 0 83 191 84 181 -1
833 0 83 191 83 180 -1
834 0 83 192 83 180 5896
835 0 83 192 82 181 5890
836 0 83 191 81 180 -1
837 0 83 191 81 181 -1
838 0 83 190 82 182 -1
839 0 83 189 83 182 -1
840 0 84 171 73 117 5986
841 0 84 170 74 116 -1
842 0 84 169 74 117 -1
843 0 84 170 75 116 5989
844 0 84 169 75 117 5983
845 0 84 168 74 118 -1
846 0 84 169 74 119 5982
847 0 84 168 73 118 5988
848 0 84 168 73 117 5985
849 0 84 168 72 116 -1
850 0 85 26 2 84 -1
851 0 85 25 1 85 -1
852 0 85 26 1 85 -1
853 0 85 25 1 84 -1
854 0 85 26 0 83 -1
855 0 85 27 1 83 7868
856 0 85 28 0 84 5665
857 0 85 29 199 83 5664
858 0 85 28 0 82 5669
859 0 85 29 0 81 -1
860 0 86 186 63 38 5783
861 0 86 187 63 38 5785
862 0 86 187 64 39 -1
863 0 86 187 63 39 5789
864 0 86 188 62 40 5787
865 0 86 188 62 41 -1
866 0 86 187 62 40 5788
867 0 86 187 63 41 -1
868 0 86 186 63 40 5784
869 0 86 185 64 41 5781
870 0 87 165 19 177 -1
871 0 87 166 19 178 -1
872 0 87 167 19 178 -1
873 0 87 168 20 179 -1
874 0 87 167 20 178 5183
875 0 87 168 21 177 -1
876 0 87 168 22 178 -1
877 0 87 167 21 179 5184
878 0 87 167 21 180 -1
879 0 87 168 20 181 5185
880 0 88 17 7 67 -1
881 0 88 18 8 66 7770
882 0 88 17 8 67 -1
883 0 88 18 9 67 -1
884 0 88 17 10 68 -1
885 0 88 18 9 69 -1
886 0 88 19 10 68 -1
887 0 88 19 11 69 7775
888 0 88 20 10 69 7771
889 0 88 20 9 70 7776
890 0 89 119 7 142 9693
891 0 89 120 8 141 6683
892 0 89 121 9 140 9698
893 0 89 121 10 140 9696
894 0 89 120 9 139 6684
895 0 89 121 8 140 -1
896 0 89 121 7 141 9694
897 0 89 120 7 141 -1
898 0 89 120 7 140 -1
899 0 89 121 6 141 6680
900 0 90 67 186 72 9172
901 0 90 67 185 73 -1
902 0 90 68 186 73 9170
903 0 90 69 185 73 -1
904 0 90 69 184 72 -1
905 0 90 70 185 71 -1
906 0 90 71 186 72 9176
907 0 90 70 187 71 -1
908 0 90 69 188 70 -1
909 0 90 68 187 70 9173
910 0 91 164 125 113 -1
911 0 91 163 125 114 -1
912 0 91 162 125 115 -1
913 0 91 163 126 114 -1
914 0 91 163 127 115 -1
915 0 91 162 127 115 -1
916 0 91 161 127 114 -1
917 0 91 160 128 114 -1
918 0 91 160 129 114 -1
919 0 91 161 129 115 -1
920 0 92 78 26 108 -1
921 0 92 77 27 109 5082
922 0 92 76 27 110 -1
923 0 92 76 27 109 -1
924 0 92 75 26 109 -1
925 0 92 76 25 109 5080
926 0 92 76 25 110 -1
927 0 92 75 25 110 5083
928 0 92 75 25 109 -1
929 0 92 76 26 108 5085
930 0 93 116 55 184 -1
931 0 93 115 56 183 8427
932 0 93 116 56 182 8422
933 0 93 117 57 183 -1
934 0 93 116 58 184 8424
935 0 93 117 58 183 8423
936 0 93 117 58 184 -1
937 0 93 116 59 185 -1
938 0 93 115 58 184 -1
939 0 93 116 57 184 8426
940 0 94 53 10 125 -1
941 0 94 54 11 126 7319
942 0 94 53 12 126 -1
943 0 94 54 12 127 -1
944 0 94 54 12 126 -1
945 0 94 55 11 127 7318
946 0 94 56 11 126 -1
947 0 94 56 12 125 7315
948 0 94 57 13 124 -1
949 0 94 56 14 124 7313
950 0 95 190 110 169 -1
951 0 95 191 111 170 -1
952 0 95 192 110 169 6338
953 0 95 193 111 169 6337
954 0 95 194 112 170 -1
955 0 95 193 113 171 6334
956 0 95 193 114 170 6335
957 0 95 193 114 169 -1
958 0 95 194 115 169 6332
959 0 95 194 115 170 -1
960 0 96 19 172 175 -1
961 0 96 18 171 176 5745
962 0 96 18 172 177 5747
963 0 96 17 173 177 5743
964 0 96 18 172 176 5744
965 0 96 17 171 176 -1
966 0 96 16 171 175 5746
967 0 96 17 172 174 -1
968 0 96 16 172 173 -1
969 0 96 15 173 174 -1
970 0 97 59 58 149 -1
971 0 97 60 59 149 6973
972 0 97 61 60 149 -1
973 0 97 60 60 149 6972
974 0 97 61 61 148 -1
975 0 97 62 61 149 -1
976 0 97 63 60 148 -1
977 0 97 63 59 148 6977
978 0 97 62 60 148 -1
979 0 97 62 59 148 -1
980 0 98 45 89 186 9012
981 0 98 44 90 187 9015
982 0 98 43 91 186 -1
983 0 98 43 90 187 -1
984 0 98 44 90 188 9016
985 0 98 44 89 188 -1
986 0 98 45 88 189 9011
987 0 98 46 88 188 9017
988 0 98 46 87 187 9010
989 0 98 45 87 188 9013
990 0 99 55 181 58 6584
991 0 99 56 180 57 6583
992 0 99 57 179 56 6580
993 0 99 57 179 57 -1
994 0 99 56 179 57 6587
995 0 99 56 178 58 6581
996 0 99 55 177 59 -1
997 0 99 56 177 59 -1
998 0 99 57 176 58 -1
999 0 99 57 175 58 -1
1000 0 100 51 28 79 7743
1001 0 100 51 29 80 7745
1002 0 100 52 30 80 7746
1003 0 100 53 30 80 7747
1004 0 100 53 30 79 -1
1005 0 100 52 31 80 -1
1006 0 100 52 32 80 7748
1007 0 100 52 32 81 -1
1008 0 100 53 32 80 -1
1009 0 100 54 32 80 -1
1010 0 101 149 144 148 -1
1011 0 101 148 145 149 -1
1012 0 101 149 144 149 9441
1013 0 101 148 145 148 -1
1014 0 101 149 146 149 9442
1015 0 101 148 147 150 -1
1016 0 101 147 146 150 -1
1017 0 101 146 145 150 9443
1018 0 101 147 144 151 9448
1019 0 101 147 143 151 9447
1020 0 102 183 149 25 9054
1021 0 102 182 150 25 -1
1022 0 102 183 150 26 9056
1023 0 102 182 151 26 9057
1024 0 102 183 150 25 9053
1025 0 102 184 151 26 -1
1026 0 102 185 150 27 9059
1027 0 102 184 151 28 9058
1028 0 102 185 150 28 -1
1029 0 102 184 151 29 -1
1030 0 103 127 106 68 -1
1031 0 103 127 106 67 8098
1032 0 103 127 106 66 8096
1033 0 103 126 106 66 8094
1034 0 103 126 107 65 8092
1035 0 103 125 106 64 -1
1036 0 103 124 106 65 8093
1037 0 103 124 105 65 -1
1038 0 103 125 105 66 8095
1039 0 103 126 105 65 -1
1040 0 104 86 165 41 -1
1041 0 104 86 164 42 -1
1042 0 104 87 164 43 -1
1043 0 104 86 163 42 9657
1044 0 104 87 163 43 9652
1045 0 104 88 164 44 -1
1046 0 104 88 165 43 -1
1047 0 104 87 165 42 9653
1048 0 104 87 165 43 -1
1049 0 104 86 165 44 -1
1050 0 105 113 74 107 8856
1051 0 105 112 74 107 8855
1052 0 105 111 75 106 8858
1053 0 105 112 75 107 8852
1054 0 105 111 74 106 -1
1055 0 105 110 75 105 -1
1056 0 105 109 74 105 -1
1057 0 105 109 75 105 -1
1058 0 105 108 75 104 -1
1059 0 105 108 76 105 -1
1060 0 106 19 8 135 7684
1061 0 106 20 8 134 7680
1062 0 106 21 7 134 -1
1063 0 106 20 6 134 -1
1064 0 106 21 5 133 -1
1065 0 106 20 5 134 7687
1066 0 106 19 6 134 7688
1067 0 106 20 6 135 7686
1068 0 106 19 7 136 -1
1069 0 106 18 8 137 -1
1070 0 107 132 129 80 6118
1071 0 107 131 130 81 6117
1072 0 107 130 129 82 -1
1073 0 107 130 130 82 6119
1074 0 107 129 129 83 -1
1075 0 107 128 130 84 -1
1076 0 107 129 129 85 -1
1077 0 107 130 128 85 6111
1078 0 107 130 128 84 6110
1079 0 107 129 127 85 6114
1080 0 108 174 84 141 -1
1081 0 108 175 83 141 -1
1082 0 108 176 82 141 -1
1083 0 108 176 83 140 -1
1084 0 108 177 84 139 -1
1085 0 108 177 85 138 -1
1086 0 108 176 85 139 -1
1087 0 108 175 85 138 -1
1088 0 108 175 84 137 -1
1089 0 108 174 85 138 -1
1090 0 109 148 25 123 9029
1091 0 109 149 24 122 9027
1092 0 109 149 25 121 -1
1093 0 109 150 25 122 9024
1094 0 109 149 24 121 9028
1095 0 109 148 25 120 -1
1096 0 109 148 24 121 -1
1097 0 109 149 24 120 -1
1098 0 109 150 25 120 -1
1099 0 109 150 24 121 9026
1100 0 110 44 184 48 5055
1101 0 110 45 185 49 -1
1102 0 110 46 186 49 5054
1103 0 110 46 185 50 5050
1104 0 110 45 186 50 -1
1105 0 110 44 187 50 -1
1106 0 110 43 186 49 5056
1107 0 110 44 186 48 -1
1108 0 110 44 186 47 5057
1109 0 110 44 185 46 5058
1110 0 111 37 84 70 9160
1111 0 111 38 84 70 -1
1112 0 111 39 84 71 9164
1113 0 111 39 83 72 9168
1114 0 111 38 84 73 -1
1115 0 111 38 84 72 9165
1116 0 111 37 83 72 -1
1117 0 111 36 84 71 -1
1118 0 111 37 85 71 -1
1119 0 111 36 84 70 -1
1120 0 112 135 91 42 9902
1121 0 112 134 90 43 -1
1122 0 112 134 91 43 -1
1123 0 112 135 91 44 9900
1124 0 112 134 90 44 9908
1125 0 112 133 91 45 -1
1126 0 112 134 91 44 9906
1127 0 112 135 90 45 9903
1128 0 112 134 91 46 9905
1129 0 112 134 92 47 -1
1130 0 113 94 163 166 -1
1131 0 113 95 164 167 9702
1132 0 113 96 163 167 9703
1133 0 113 97 163 166 9707
1134 0 113 96 162 166 9701
1135 0 113 97 162 165 9704
1136 0 113 98 161 166 9705
1137 0 113 98 160 166 -1
1138 0 113 99 159 166 -1
1139 0 113 98 159 167 -1
1140 0 114 116 137 52 8159
1141 0 114 115 137 52 8158
1142 0 114 114 138 52 8156
1143 0 114 114 139 51 8154
1144 0 114 113 138 51 -1
1145 0 114 114 137 51 -1
1146 0 114 113 137 50 8152
1147 0 114 112 138 50 8151
1148 0 114 112 139 51 -1
1149 0 114 111 140 51 8150
1150 0 115 3 123 70 6290
1151 0 115 3 123 71 -1
1152 0 115 4 122 70 6292
1153 0 115 5 121 71 -1
1154 0 115 4 120 72 -1
1155 0 115 5 121 72 -1
1156 0 115 4 121 72 -1
1157 0 115 3 121 72 -1
1158 0 115 2 120 71 -1
1159 0 115 2 121 70 -1
1160 0 116 88 82 40 5582
1161 0 116 88 83 40 5586
1162 0 116 89 84 41 5585
1163 0 116 89 84 40 5584
1164 0 116 89 83 39 5587
1165 0 116 89 82 40 5588
1166 0 116 89 81 39 5581
1167 0 116 89 80 38 -1
1168 0 116 88 81 38 5583
1169 0 116 87 81 38 -1
1170 0 117 133 15 71 -1
1171 0 117 133 16 72 -1
1172 0 117 133 16 71 6159
1173 0 117 133 17 71 -1
1174 0 117 132 16 70 -1
1175 0 117 132 17 69 6156
1176 0 117 131 17 68 6152
1177 0 117 131 18 69 -1
1178 0 117 131 19 69 6150
1179 0 117 131 20 68 -1
1180 0 118 112 189 52 -1
1181 0 118 111 190 53 -1
1182 0 118 112 190 52 -1
1183 0 118 113 191 51 -1
1184 0 118 113 192 52 -1
1185 0 118 113 191 53 7429
1186 0 118 112 192 54 7426
1187 0 118 113 192 55 7423
1188 0 118 112 192 56 7424
1189 0 118 112 192 57 -1
1190 0 119 4 110 58 6984
1191 0 119 3 110 58 -1
1192 0 119 2 109 58 6987
1193 0 119 2 109 57 -1
1194 0 119 1 110 57 -1
1195 0 119 2 110 56 6983
1196 0 119 3 109 56 -1
1197 0 119 2 108 57 6980
1198 0 119 3 108 56 6986
1199 0 119 2 107 57 -1
1200 0 120 195 62 184 9857
1201 0 120 194 62 184 9855
1202 0 120 194 63 183 9856
1203 0 120 194 62 182 9853
1204 0 120 194 63 181 -1
1205 0 120 195 63 182 9854
1206 0 120 196 64 183 -1
1207 0 120 197 63 182 -1
1208 0 120 197 63 181 -1
1209 0 120 198 64 181 -1
1210 0 121 1 49 36 9358
1211 0 121 0 49 37 -1
1212 0 121 0 50 37 -1
1213 0 121 199 50 36 -1
1214 0 121 0 49 35 9357
1215 0 121 1 49 34 9359
1216 0 121 2 50 34 9353
1217 0 121 2 51 34 7451
1218 0 121 2 50 35 9356
1219 0 121 3 49 36 7452
1220 0 122 77 66 147 -1
1221 0 122 77 65 146 -1
1222 0 122 78 65 147 -1
1223 0 122 77 64 146 8976
1224 0 122 78 63 145 -1
1225 0 122 78 62 146 8974
1226 0 122 77 61 147 -1
1227 0 122 77 61 146 8972
1228 0 122 78 62 147 8977
1229 0 122 78 62 148 -1
1230 0 123 43 73 33 7351
1231 0 123 42 74 32 7355
1232 0 123 43 74 33 -1
1233 0 123 42 73 34 7354
1234 0 123 41 74 33 -1
1235 0 123 41 75 34 -1
1236 0 123 42 76 34 -1
1237 0 123 43 75 33 7357
1238 0 123 44 75 34 -1
1239 0 123 43 76 34 7353
1240 0 124 95 25 76 -1
1241 0 124 94 26 77 9034
1242 0 124 93 25 78 -1
1243 0 124 94 25 77 9031
1244 0 124 95 26 77 -1
1245 0 124 94 25 76 -1
1246 0 124 94 26 76 9033
1247 0 124 95 25 75 9032
1248 0 124 96 25 74 -1
1249 0 124 95 26 74 -1
1250 0 125 48 189 177 -1
1251 0 125 47 190 176 -1
1252 0 125 47 189 176 5883
1253 0 125 48 190 177 5887
1254 0 125 47 191 177 5889
1255 0 125 47 192 178 5567
1256 0 125 47 193 178 5888
1257 0 125 48 194 177 5564
1258 0 125 48 194 176 5563
1259 0 125 48 195 177 -1
1260 0 126 72 60 142 -1
1261 0 126 73 59 142 -1
1262 0 126 74 59 142 -1
1263 0 126 75 60 143 -1
1264 0 126 76 61 144 8973
1265 0 126 75 60 145 -1
1266 0 126 75 61 145 8971
1267 0 126 75 62 146 8970
1268 0 126 74 63 146 -1
1269 0 126 75 64 146 8978