ITEM: TIMESTEP
0
ITEM: NUMBER OF ATOMS
20
ITEM: BOX BOUNDS pp pp pp
0 200
0 200
0 200
ITEM: ATOMS id type mol x y z bP
0 0 0 19 60 127 -1
1 0 0 20 60 126 13
2 0 0 19 61 127 12
3 0 0 19 62 127 -1
4 0 0 20 61 128 -1
5 0 0 19 60 128 11
6 0 0 18 61 129 -1
7 0 0 19 61 129 -1
8 0 0 18 62 130 -1
9 0 0 17 63 129 -1
10 1 0 18 62 128 -1
11 1 0 18 61 127 5
12 1 0 19 62 126 2
13 1 0 20 61 126 1
14 1 0 20 62 126 -1
15 1 0 21 62 127 -1
16 1 0 21 63 127 -1
17 1 0 20 63 126 -1
18 1 0 21 64 125 -1
19 1 0 22 63 124 -1
