ITEM: TIMESTEP
0
ITEM: NUMBER OF ATOMS
20
ITEM: BOX BOUNDS pp pp pp
0 200
0 200
0 200
ITEM: ATOMS id type mol x y z bP
0 0 0 33 90 76 -1
1 0 0 33 91 76 14
2 0 0 34 92 77 -1
3 0 0 33 92 76 18
4 0 0 32 93 76 19
5 0 0 32 92 77 -1
6 0 0 31 91 77 15
7 0 0 30 90 77 -1
8 0 0 31 90 76 16
9 0 0 30 91 76 12
10 1 0 29 90 76 -1
11 1 0 30 91 75 -1
12 1 0 30 90 75 9
13 1 0 31 89 75 -1
14 1 0 32 90 76 1
15 1 0 31 90 77 6
16 1 0 30 90 76 8
17 1 0 31 91 76 -1
18 1 0 32 92 75 3
19 1 0 31 92 76 4
