ITEM: TIMESTEP
0
ITEM: NUMBER OF ATOMS
20
ITEM: BOX BOUNDS pp pp pp
0 200
0 200
0 200
ITEM: ATOMS id type mol x y z bP
0 0 0 111 68 101 -1
1 0 0 111 69 101 -1
2 0 0 112 68 102 -1
3 0 0 113 69 103 -1
4 0 0 114 68 104 -1
5 0 0 115 69 105 -1
6 0 0 116 70 105 -1
7 0 0 115 71 105 -1
8 0 0 115 72 106 -1
9 0 0 114 73 105 -1
10 1 0 113 72 104 -1
11 1 0 114 71 104 -1
12 1 0 114 72 105 -1
13 1 0 114 72 104 -1
14 1 0 113 71 104 -1
15 1 0 112 70 104 -1
16 1 0 113 70 104 -1
17 1 0 114 70 104 -1
18 1 0 114 69 104 -1
19 1 0 113 68 103 -1
ITEM: TIMESTEP
250000
ITEM: NUMBER OF ATOMS
20
ITEM: BOX BOUNDS pp pp pp
0 200
0 200
0 200
ITEM: ATOMS id type mol x y z bP
0 0 0 150 155 43 -1
1 0 0 150 154 43 -1
2 0 0 151 153 42 -1
3 0 0 152 154 43 -1
4 0 0 152 153 42 -1
5 0 0 152 152 41 -1
6 0 0 153 153 41 -1
7 0 0 153 152 40 -1
8 0 0 153 152 41 -1
9 0 0 154 151 40 -1
10 1 0 154 151 39 -1
11 1 0 153 151 38 -1
12 1 0 153 150 38 -1
13 1 0 152 149 37 -1
14 1 0 151 148 36 -1
15 1 0 152 147 36 -1
16 1 0 153 148 37 -1
17 1 0 154 147 37 -1
18 1 0 153 147 38 -1
19 1 0 152 148 38 -1
ITEM: TIMESTEP
500000
ITEM: NUMBER OF ATOMS
20
ITEM: BOX BOUNDS pp pp pp
0 200
0 200
0 200
ITEM: ATOMS id type mol x y z bP
0 0 0 159 179 171 -1
1 0 0 158 178 172 -1
2 0 0 157 179 173 -1
3 0 0 156 179 174 -1
4 0 0 156 178 175 -1
5 0 0 157 179 174 -1
6 0 0 157 180 174 -1
7 0 0 157 180 173 -1
8 0 0 156 179 172 -1
9 0 0 156 180 171 -1
10 1 0 157 180 170 -1
11 1 0 158 180 170 -1
12 1 0 158 179 169 -1
13 1 0 159 178 169 -1
14 1 0 160 177 169 -1
15 1 0 160 176 170 -1
16 1 0 161 175 170 -1
17 1 0 160 175 169 -1
18 1 0 160 174 168 -1
19 1 0 159 175 168 -1
ITEM: TIMESTEP
750000
ITEM: NUMBER OF ATOMS
20
ITEM: BOX BOUNDS pp pp pp
0 200
0 200
0 200
ITEM: ATOMS id type mol x y z bP
0 0 0 149 161 6 -1
1 0 0 148 160 7 -1
2 0 0 147 159 7 -1
3 0 0 146 159 8 -1
4 0 0 147 158 9 -1
5 0 0 147 158 8 -1
6 0 0 146 158 7 -1
7 0 0 145 157 6 -1
8 0 0 146 156 5 -1
9 0 0 147 157 4 -1
10 1 0 148 157 3 -1
11 1 0 149 157 2 -1
12 1 0 149 156 1 -1
13 1 0 148 156 0 -1
14 1 0 149 157 0 -1
15 1 0 148 158 199 -1
16 1 0 148 157 198 -1
17 1 0 147 157 199 -1
18 1 0 146 157 0 -1
19 1 0 147 156 1 -1
ITEM: TIMESTEP
1000000
ITEM: NUMBER OF ATOMS
20
ITEM: BOX BOUNDS pp pp pp
0 200
0 200
0 200
ITEM: ATOMS id type mol x y z bP
0 0 0 112 24 136 -1
1 0 0 113 24 136 -1
2 0 0 114 25 135 -1
3 0 0 114 26 135 -1
4 0 0 115 27 135 -1
5 0 0 114 27 134 -1
6 0 0 113 26 135 -1
7 0 0 113 26 134 -1
8 0 0 112 27 133 -1
9 0 0 112 26 132 -1
10 1 0 111 25 133 -1
11 1 0 110 25 134 -1
12 1 0 109 26 134 -1
13 1 0 108 27 135 -1
14 1 0 107 26 134 -1
15 1 0 108 27 133 -1
16 1 0 109 28 134 -1
17 1 0 110 29 135 -1
18 1 0 110 29 136 -1
19 1 0 111 29 137 -1
ITEM: TIMESTEP
1250001
ITEM: NUMBER OF ATOMS
20
ITEM: BOX BOUNDS pp pp pp
0 200
0 200
0 200
ITEM: ATOMS id type mol x y z bP
0 0 0 113 37 128 19
1 0 0 113 37 127 -1
2 0 0 112 36 127 -1
3 0 0 111 36 128 18
4 0 0 112 37 129 16
5 0 0 113 36 130 15
6 0 0 113 35 129 13
7 0 0 114 36 129 12
8 0 0 115 36 129 14
9 0 0 116 36 130 10
10 1 0 117 35 130 9
11 1 0 116 34 130 -1
12 1 0 115 35 129 7
13 1 0 114 35 130 6
14 1 0 114 35 129 8
15 1 0 113 35 130 5
16 1 0 112 36 130 4
17 1 0 111 37 129 -1
18 1 0 112 36 129 3
19 1 0 112 36 128 0
ITEM: TIMESTEP
1500001
ITEM: NUMBER OF ATOMS
20
ITEM: BOX BOUNDS pp pp pp
0 200
0 200
0 200
ITEM: ATOMS id type mol x y z bP
0 0 0 122 45 131 13
1 0 0 122 46 132 12
2 0 0 123 47 133 -1
3 0 0 124 47 134 18
4 0 0 124 46 134 17
5 0 0 123 46 134 -1
6 0 0 124 45 134 -1
7 0 0 123 45 135 -1
8 0 0 122 44 134 -1
9 0 0 122 45 135 10
10 1 0 122 45 134 9
11 1 0 122 44 133 -1
12 1 0 122 45 133 1
13 1 0 123 46 132 0
14 1 0 123 47 131 -1
15 1 0 123 46 131 -1
16 1 0 124 47 132 -1
17 1 0 125 46 133 4
18 1 0 125 47 134 3
19 1 0 124 48 135 -1
ITEM: TIMESTEP
1750001
ITEM: NUMBER OF ATOMS
20
ITEM: BOX BOUNDS pp pp pp
0 200
0 200
0 200
ITEM: ATOMS id type mol x y z bP
0 0 0 139 39 137 17
1 0 0 138 38 136 18
2 0 0 137 39 137 -1
3 0 0 137 38 138 16
4 0 0 136 39 139 -1
5 0 0 136 39 138 -1
6 0 0 136 39 137 14
7 0 0 135 40 137 -1
8 0 0 136 41 136 13
9 0 0 135 42 135 11
10 1 0 134 42 135 -1
11 1 0 135 42 136 9
12 1 0 136 42 135 -1
13 1 0 137 41 136 8
14 1 0 136 40 137 6
15 1 0 137 39 138 -1
16 1 0 138 39 138 3
17 1 0 139 38 137 0
18 1 0 139 37 137 1
19 1 0 140 37 136 -1
ITEM: TIMESTEP
2000001
ITEM: NUMBER OF ATOMS
20
ITEM: BOX BOUNDS pp pp pp
0 200
0 200
0 200
ITEM: ATOMS id type mol x y z bP
0 0 0 132 39 143 -1
1 0 0 132 40 142 18
2 0 0 133 41 141 16
3 0 0 132 42 140 15
4 0 0 133 43 139 -1
5 0 0 134 44 139 -1
6 0 0 134 43 140 14
7 0 0 133 44 140 13
8 0 0 134 45 140 12
9 0 0 134 46 141 11
10 1 0 133 47 140 -1
11 1 0 133 46 140 9
12 1 0 133 45 140 8
13 1 0 134 44 140 7
14 1 0 133 43 141 6
15 1 0 132 43 140 3
16 1 0 133 42 140 2
17 1 0 133 41 140 -1
18 1 0 132 40 141 1
19 1 0 133 39 141 -1
ITEM: TIMESTEP
2250001
ITEM: NUMBER OF ATOMS
20
ITEM: BOX BOUNDS pp pp pp
0 200
0 200
0 200
ITEM: ATOMS id type mol x y z bP
0 0 0 140 48 132 -1
1 0 0 140 47 133 -1
2 0 0 140 46 133 -1
3 0 0 141 45 134 17
4 0 0 140 46 135 18
5 0 0 141 45 136 19
6 0 0 141 45 135 16
7 0 0 140 44 136 13
8 0 0 140 43 136 14
9 0 0 141 44 136 10
10 1 0 140 45 137 9
11 1 0 139 45 137 -1
12 1 0 138 45 137 -1
13 1 0 139 44 136 7
14 1 0 139 44 137 8
15 1 0 140 45 136 -1
16 1 0 141 46 135 6
17 1 0 142 46 135 3
18 1 0 141 47 136 4
19 1 0 141 46 136 5
ITEM: TIMESTEP
2500001
ITEM: NUMBER OF ATOMS
20
ITEM: BOX BOUNDS pp pp pp
0 200
0 200
0 200
ITEM: ATOMS id type mol x y z bP
0 0 0 145 41 139 -1
1 0 0 144 40 140 14
2 0 0 145 39 139 -1
3 0 0 144 38 139 -1
4 0 0 143 39 139 16
5 0 0 143 39 138 13
6 0 0 142 40 138 17
7 0 0 141 39 138 11
8 0 0 140 38 137 -1
9 0 0 140 39 138 12
10 1 0 139 38 137 -1
11 1 0 140 39 137 7
12 1 0 141 40 138 9
13 1 0 142 39 139 5
14 1 0 143 40 139 1
15 1 0 142 39 140 -1
16 1 0 143 39 140 4
17 1 0 142 40 139 6
18 1 0 142 40 140 -1
19 1 0 141 41 140 -1
ITEM: TIMESTEP
2750001
ITEM: NUMBER OF ATOMS
20
ITEM: BOX BOUNDS pp pp pp
0 200
0 200
0 200
ITEM: ATOMS id type mol x y z bP
0 0 0 136 41 130 16
1 0 0 137 41 131 -1
2 0 0 137 41 132 -1
3 0 0 138 40 133 10
4 0 0 139 39 132 -1
5 0 0 138 40 132 12
6 0 0 139 41 131 17
7 0 0 139 42 132 11
8 0 0 138 41 133 14
9 0 0 139 40 133 13
10 1 0 139 40 132 3
11 1 0 140 41 133 7
12 1 0 139 41 133 5
13 1 0 140 40 132 9
14 1 0 139 41 132 8
15 1 0 138 41 131 -1
16 1 0 137 42 130 0
17 1 0 138 42 130 6
18 1 0 138 43 129 -1
19 1 0 139 42 130 -1
ITEM: TIMESTEP
3000001
ITEM: NUMBER OF ATOMS
20
ITEM: BOX BOUNDS pp pp pp
0 200
0 200
0 200
ITEM: ATOMS id type mol x y z bP
0 0 0 139 38 130 -1
1 0 0 140 38 129 -1
2 0 0 141 39 130 -1
3 0 0 142 40 131 -1
4 0 0 141 41 132 -1
5 0 0 140 40 132 10
6 0 0 139 40 131 12
7 0 0 139 41 131 -1
8 0 0 140 40 130 -1
9 0 0 140 41 130 11
10 1 0 140 41 131 5
11 1 0 140 40 131 9
12 1 0 139 40 132 6
13 1 0 138 41 133 -1
14 1 0 137 41 132 -1
15 1 0 138 42 131 -1
16 1 0 138 43 130 -1
17 1 0 137 44 130 -1
18 1 0 137 45 131 -1
19 1 0 136 45 132 -1
ITEM: TIMESTEP
3250001
ITEM: NUMBER OF ATOMS
20
ITEM: BOX BOUNDS pp pp pp
0 200
0 200
0 200
ITEM: ATOMS id type mol x y z bP
0 0 0 135 43 134 15
1 0 0 135 42 133 12
2 0 0 135 41 134 16
3 0 0 135 41 133 14
4 0 0 136 40 133 13
5 0 0 137 40 134 17
6 0 0 137 39 134 -1
7 0 0 136 38 133 10
8 0 0 135 39 132 -1
9 0 0 136 39 132 11
10 1 0 135 39 133 7
11 1 0 135 40 132 9
12 1 0 134 41 133 1
13 1 0 135 41 132 4
14 1 0 136 42 133 3
15 1 0 135 42 134 0
16 1 0 136 41 135 2
17 1 0 137 41 135 5
18 1 0 136 41 136 -1
19 1 0 137 41 137 -1
ITEM: TIMESTEP
3500001
ITEM: NUMBER OF ATOMS
20
ITEM: BOX BOUNDS pp pp pp
0 200
0 200
0 200
ITEM: ATOMS id type mol x y z bP
0 0 0 141 46 130 19
1 0 0 142 46 130 15
2 0 0 142 45 129 16
3 0 0 141 45 128 17
4 0 0 140 44 129 10
5 0 0 140 45 130 14
6 0 0 140 44 130 -1
7 0 0 140 43 130 -1
8 0 0 140 42 129 -1
9 0 0 141 43 128 12
10 1 0 140 43 128 4
11 1 0 141 43 127 -1
12 1 0 141 44 127 9
13 1 0 140 44 128 -1
14 1 0 141 44 129 5
15 1 0 141 45 129 1
16 1 0 141 44 128 2
17 1 0 140 45 128 3
18 1 0 140 46 128 -1
19 1 0 140 46 129 0
ITEM: TIMESTEP
3750001
ITEM: NUMBER OF ATOMS
20
ITEM: BOX BOUNDS pp pp pp
0 200
0 200
0 200
ITEM: ATOMS id type mol x y z bP
0 0 0 134 44 130 12
1 0 0 134 44 131 10
2 0 0 134 45 131 -1
3 0 0 135 46 131 -1
4 0 0 135 45 130 -1
5 0 0 136 45 131 18
6 0 0 135 46 130 11
7 0 0 135 47 131 19
8 0 0 135 47 130 -1
9 0 0 136 46 131 16
10 1 0 135 45 131 1
11 1 0 136 45 130 6
12 1 0 135 44 131 0
13 1 0 136 43 132 -1
14 1 0 135 44 132 -1
15 1 0 135 44 133 -1
16 1 0 135 45 132 9
17 1 0 135 45 133 -1
18 1 0 136 46 132 5
19 1 0 135 47 132 7
ITEM: TIMESTEP
4000001
ITEM: NUMBER OF ATOMS
20
ITEM: BOX BOUNDS pp pp pp
0 200
0 200
0 200
ITEM: ATOMS id type mol x y z bP
0 0 0 133 40 134 15
1 0 0 132 41 134 18
2 0 0 131 42 134 16
3 0 0 130 41 133 17
4 0 0 131 40 133 14
5 0 0 132 40 134 -1
6 0 0 133 39 134 11
7 0 0 133 40 133 12
8 0 0 133 41 133 19
9 0 0 133 40 132 13
10 1 0 132 39 132 -1
11 1 0 133 39 133 6
12 1 0 133 39 132 7
13 1 0 133 39 131 9
14 1 0 132 40 132 4
15 1 0 132 40 133 0
16 1 0 131 41 134 2
17 1 0 130 40 133 3
18 1 0 131 40 134 1
19 1 0 132 41 133 8
ITEM: TIMESTEP
4250001
ITEM: NUMBER OF ATOMS
20
ITEM: BOX BOUNDS pp pp pp
0 200
0 200
0 200
ITEM: ATOMS id type mol x y z bP
0 0 0 138 37 142 19
1 0 0 137 38 143 17
2 0 0 138 39 143 -1
3 0 0 137 40 143 14
4 0 0 137 41 142 15
5 0 0 136 41 143 10
6 0 0 135 41 144 13
7 0 0 135 42 144 -1
8 0 0 136 43 143 11
9 0 0 137 43 144 12
10 1 0 137 42 143 5
11 1 0 136 43 144 8
12 1 0 136 42 145 9
13 1 0 136 41 144 6
14 1 0 137 41 143 3
15 1 0 137 40 142 4
16 1 0 136 40 143 -1
17 1 0 137 39 144 1
18 1 0 138 38 144 -1
19 1 0 139 38 143 0
ITEM: TIMESTEP
4500001
ITEM: NUMBER OF ATOMS
20
ITEM: BOX BOUNDS pp pp pp
0 200
0 200
0 200
ITEM: ATOMS id type mol x y z bP
0 0 0 136 35 148 -1
1 0 0 135 36 148 17
2 0 0 134 37 148 16
3 0 0 134 36 149 18
4 0 0 133 37 149 10
5 0 0 132 36 148 15
6 0 0 132 37 149 14
7 0 0 132 37 150 13
8 0 0 131 38 150 12
9 0 0 131 37 150 -1
10 1 0 132 38 149 4
11 1 0 131 39 150 -1
12 1 0 130 38 150 8
13 1 0 131 37 149 7
14 1 0 131 38 149 6
15 1 0 132 37 148 5
16 1 0 133 36 149 2
17 1 0 134 37 149 1
18 1 0 134 36 150 3
19 1 0 134 36 151 -1
ITEM: TIMESTEP
4750001
ITEM: NUMBER OF ATOMS
20
ITEM: BOX BOUNDS pp pp pp
0 200
0 200
0 200
ITEM: ATOMS id type mol x y z bP
0 0 0 134 31 145 18
1 0 0 134 30 145 13
2 0 0 134 31 146 15
3 0 0 135 30 147 11
4 0 0 136 29 148 12
5 0 0 135 29 147 16
6 0 0 134 29 146 14
7 0 0 135 28 146 10
8 0 0 136 29 146 -1
9 0 0 136 28 147 -1
10 1 0 135 28 147 7
11 1 0 135 29 148 3
12 1 0 136 30 147 4
13 1 0 135 29 146 1
14 1 0 135 30 146 6
15 1 0 135 31 147 2
16 1 0 134 30 147 5
17 1 0 133 29 147 -1
18 1 0 133 30 146 0
19 1 0 133 29 145 -1
ITEM: TIMESTEP
5000001
ITEM: NUMBER OF ATOMS
20
ITEM: BOX BOUNDS pp pp pp
0 200
0 200
0 200
ITEM: ATOMS id type mol x y z bP
0 0 0 137 29 142 -1
1 0 0 137 30 143 15
2 0 0 137 31 142 16
3 0 0 138 30 141 13
4 0 0 138 30 142 17
5 0 0 139 29 143 14
6 0 0 140 28 142 12
7 0 0 141 27 141 11
8 0 0 140 27 142 -1
9 0 0 140 28 141 10
10 1 0 141 29 142 9
11 1 0 141 28 142 7
12 1 0 140 29 142 6
13 1 0 139 29 142 3
14 1 0 138 30 143 5
15 1 0 137 31 143 1
16 1 0 138 31 143 2
17 1 0 139 31 143 4
18 1 0 140 32 143 -1
19 1 0 139 33 144 -1
ITEM: TIMESTEP
5250001
ITEM: NUMBER OF ATOMS
20
ITEM: BOX BOUNDS pp pp pp
0 200
0 200
0 200
ITEM: ATOMS id type mol x y z bP
0 0 0 143 34 145 -1
1 0 0 142 35 146 -1
2 0 0 143 35 146 -1
3 0 0 142 36 146 10
4 0 0 141 35 145 -1
5 0 0 142 36 145 12
6 0 0 142 36 144 11
7 0 0 143 37 144 17
8 0 0 142 38 145 15
9 0 0 142 38 144 13
10 1 0 141 37 145 3
11 1 0 142 37 145 6
12 1 0 142 37 144 5
13 1 0 143 38 144 9
14 1 0 142 39 145 -1
15 1 0 141 38 145 8
16 1 0 141 39 144 -1
17 1 0 142 38 143 7
18 1 0 142 39 144 -1
19 1 0 143 39 144 -1
ITEM: TIMESTEP
5500001
ITEM: NUMBER OF ATOMS
20
ITEM: BOX BOUNDS pp pp pp
0 200
0 200
0 200
ITEM: ATOMS id type mol x y z bP
0 0 0 148 40 151 -1
1 0 0 149 41 151 -1
2 0 0 148 42 151 16
3 0 0 148 43 151 -1
4 0 0 149 43 150 11
5 0 0 150 43 149 -1
6 0 0 151 42 150 18
7 0 0 151 43 150 19
8 0 0 150 42 149 -1
9 0 0 150 41 149 10
10 1 0 149 42 150 9
11 1 0 148 42 149 4
12 1 0 147 42 148 -1
13 1 0 147 43 147 -1
14 1 0 146 43 148 -1
15 1 0 147 44 149 -1
16 1 0 148 43 150 2
17 1 0 149 44 151 -1
18 1 0 150 43 151 6
19 1 0 151 42 151 7
ITEM: TIMESTEP
5750001
ITEM: NUMBER OF ATOMS
20
ITEM: BOX BOUNDS pp pp pp
0 200
0 200
0 200
ITEM: ATOMS id type mol x y z bP
0 0 0 156 43 154 -1
1 0 0 156 44 153 -1
2 0 0 156 43 153 19
3 0 0 157 42 152 16
4 0 0 156 41 151 -1
5 0 0 156 41 150 17
6 0 0 155 41 151 -1
7 0 0 155 41 152 14
8 0 0 154 42 152 15
9 0 0 155 42 153 13
10 1 0 155 42 154 -1
11 1 0 154 43 153 -1
12 1 0 154 44 152 -1
13 1 0 155 43 152 9
14 1 0 154 42 153 7
15 1 0 155 42 152 8
16 1 0 156 42 152 3
17 1 0 156 42 151 5
18 1 0 156 43 151 -1
19 1 0 156 44 152 2
ITEM: TIMESTEP
6000001
ITEM: NUMBER OF ATOMS
20
ITEM: BOX BOUNDS pp pp pp
0 200
0 200
0 200
ITEM: ATOMS id type mol x y z bP
0 0 0 153 39 157 13
1 0 0 152 40 157 10
2 0 0 152 41 157 16
3 0 0 151 41 158 -1
4 0 0 152 41 159 14
5 0 0 151 42 159 19
6 0 0 151 41 159 -1
7 0 0 151 42 158 17
8 0 0 152 41 158 12
9 0 0 151 40 158 11
10 1 0 152 40 158 1
11 1 0 152 39 159 9
12 1 0 153 40 159 8
13 1 0 153 40 158 0
14 1 0 153 41 158 4
15 1 0 153 41 157 -1
16 1 0 153 42 156 2
17 1 0 152 43 157 7
18 1 0 151 44 157 -1
19 1 0 151 43 158 5
ITEM: TIMESTEP
6250001
ITEM: NUMBER OF ATOMS
20
ITEM: BOX BOUNDS pp pp pp
0 200
0 200
0 200
ITEM: ATOMS id type mol x y z bP
0 0 0 148 42 154 -1
1 0 0 148 42 155 18
2 0 0 149 43 155 19
3 0 0 148 44 155 -1
4 0 0 149 44 156 16
5 0 0 150 44 157 15
6 0 0 149 43 158 17
7 0 0 150 42 157 12
8 0 0 149 41 156 11
9 0 0 149 40 156 -1
10 1 0 148 41 156 -1
11 1 0 149 41 155 8
12 1 0 150 42 156 7
13 1 0 151 42 156 -1
14 1 0 151 43 156 -1
15 1 0 151 43 157 5
16 1 0 150 43 157 4
17 1 0 149 43 157 6
18 1 0 149 43 156 1
19 1 0 150 42 155 2
ITEM: TIMESTEP
6500001
ITEM: NUMBER OF ATOMS
20
ITEM: BOX BOUNDS pp pp pp
0 200
0 200
0 200
ITEM: ATOMS id type mol x y z bP
0 0 0 150 44 155 -1
1 0 0 149 45 155 -1
2 0 0 150 46 155 -1
3 0 0 149 47 154 17
4 0 0 148 48 154 -1
5 0 0 149 49 154 15
6 0 0 150 49 153 19
7 0 0 149 48 154 -1
8 0 0 149 48 155 14
9 0 0 149 49 156 11
10 1 0 148 50 156 -1
11 1 0 149 50 155 9
12 1 0 150 49 155 -1
13 1 0 151 49 156 -1
14 1 0 150 48 155 8
15 1 0 150 48 154 5
16 1 0 151 47 153 -1
17 1 0 150 47 154 3
18 1 0 150 48 153 -1
19 1 0 149 49 152 6
ITEM: TIMESTEP
6750001
ITEM: NUMBER OF ATOMS
20
ITEM: BOX BOUNDS pp pp pp
0 200
0 200
0 200
ITEM: ATOMS id type mol x y z bP
0 0 0 155 50 156 14
1 0 0 154 49 155 -1
2 0 0 155 50 154 19
3 0 0 156 51 155 17
4 0 0 157 51 156 -1
5 0 0 156 51 156 18
6 0 0 157 50 156 -1
7 0 0 156 50 157 10
8 0 0 155 50 158 15
9 0 0 154 49 158 12
10 1 0 155 50 157 7
11 1 0 154 49 157 -1
12 1 0 154 50 157 9
13 1 0 154 50 156 -1
14 1 0 154 51 157 0
15 1 0 155 51 158 8
16 1 0 155 52 157 -1
17 1 0 156 52 156 3
18 1 0 157 51 155 5
19 1 0 156 50 155 2
ITEM: TIMESTEP
7000001
ITEM: NUMBER OF ATOMS
20
ITEM: BOX BOUNDS pp pp pp
0 200
0 200
0 200
ITEM: ATOMS id type mol x y z bP
0 0 0 152 60 159 16
1 0 0 153 59 160 18
2 0 0 153 58 159 17
3 0 0 154 57 158 14
4 0 0 154 56 158 13
5 0 0 154 56 157 11
6 0 0 154 55 157 -1
7 0 0 155 54 156 12
8 0 0 156 55 157 -1
9 0 0 157 54 158 10
10 1 0 156 55 158 9
11 1 0 155 55 157 5
12 1 0 154 55 156 7
13 1 0 153 56 157 4
14 1 0 153 57 158 3
15 1 0 154 58 157 -1
16 1 0 153 59 158 0
17 1 0 153 59 159 2
18 1 0 154 59 160 1
19 1 0 155 59 160 -1
ITEM: TIMESTEP
7250001
ITEM: NUMBER OF ATOMS
20
ITEM: BOX BOUNDS pp pp pp
0 200
0 200
0 200
ITEM: ATOMS id type mol x y z bP
0 0 0 162 50 157 13
1 0 0 161 50 158 14
2 0 0 160 51 158 11
3 0 0 161 52 157 -1
4 0 0 161 52 158 -1
5 0 0 160 53 158 12
6 0 0 159 52 158 15
7 0 0 158 52 157 -1
8 0 0 157 51 157 10
9 0 0 157 51 156 -1
10 1 0 158 51 156 8
11 1 0 159 51 157 2
12 1 0 160 52 157 5
13 1 0 161 51 156 0
14 1 0 161 51 157 1
15 1 0 160 52 158 6
16 1 0 161 52 159 -1
17 1 0 160 53 160 -1
18 1 0 159 53 160 -1
19 1 0 159 53 161 -1
ITEM: TIMESTEP
7500001
ITEM: NUMBER OF ATOMS
20
ITEM: BOX BOUNDS pp pp pp
0 200
0 200
0 200
ITEM: ATOMS id type mol x y z bP
0 0 0 156 49 162 10
1 0 0 156 50 162 17
2 0 0 156 50 163 18
3 0 0 155 49 164 -1
4 0 0 156 48 163 15
5 0 0 156 47 163 12
6 0 0 157 46 163 14
7 0 0 158 47 162 19
8 0 0 158 48 161 -1
9 0 0 158 49 162 11
10 1 0 157 49 162 0
11 1 0 158 48 163 9
12 1 0 157 48 162 5
13 1 0 156 47 162 -1
14 1 0 156 46 163 6
15 1 0 156 47 164 4
16 1 0 155 48 164 -1
17 1 0 156 49 163 1
18 1 0 157 49 163 2
19 1 0 158 48 162 7
ITEM: TIMESTEP
7750001
ITEM: NUMBER OF ATOMS
20
ITEM: BOX BOUNDS pp pp pp
0 200
0 200
0 200
ITEM: ATOMS id type mol x y z bP
0 0 0 157 56 163 -1
1 0 0 158 55 162 -1
2 0 0 159 55 162 -1
3 0 0 160 54 163 15
4 0 0 160 53 162 14
5 0 0 160 53 163 -1
6 0 0 161 54 162 16
7 0 0 161 54 161 10
8 0 0 162 54 162 18
9 0 0 161 53 161 13
10 1 0 161 54 160 7
11 1 0 160 55 161 -1
12 1 0 161 55 160 -1
13 1 0 160 54 160 9
14 1 0 160 53 161 4
15 1 0 161 53 162 3
16 1 0 160 54 161 6
17 1 0 161 55 162 -1
18 1 0 162 54 163 8
19 1 0 162 53 164 -1
ITEM: TIMESTEP
8000001
ITEM: NUMBER OF ATOMS
20
ITEM: BOX BOUNDS pp pp pp
0 200
0 200
0 200
ITEM: ATOMS id type mol x y z bP
0 0 0 159 53 160 19
1 0 0 160 52 160 14
2 0 0 160 52 159 12
3 0 0 160 51 160 17
4 0 0 161 51 159 -1
5 0 0 161 50 159 15
6 0 0 161 49 160 11
7 0 0 161 49 159 -1
8 0 0 161 50 160 13
9 0 0 162 49 160 -1
10 1 0 162 50 160 -1
11 1 0 161 50 161 6
12 1 0 161 51 160 2
13 1 0 160 50 159 8
14 1 0 160 51 159 1
15 1 0 160 50 160 5
16 1 0 160 51 161 -1
17 1 0 159 52 161 3
18 1 0 159 53 161 -1
19 1 0 158 52 160 0
ITEM: TIMESTEP
8250001
ITEM: NUMBER OF ATOMS
20
ITEM: BOX BOUNDS pp pp pp
0 200
0 200
0 200
ITEM: ATOMS id type mol x y z bP
0 0 0 162 48 158 18
1 0 0 163 48 158 -1
2 0 0 164 49 159 13
3 0 0 163 50 159 12
4 0 0 163 49 160 14
5 0 0 163 48 161 15
6 0 0 164 48 161 -1
7 0 0 165 48 161 -1
8 0 0 165 48 162 10
9 0 0 165 49 162 11
10 1 0 166 48 162 8
11 1 0 165 49 161 9
12 1 0 164 49 160 3
13 1 0 163 49 159 2
14 1 0 163 48 160 4
15 1 0 162 49 160 5
16 1 0 162 49 159 -1
17 1 0 161 48 159 -1
18 1 0 162 47 158 0
19 1 0 163 46 158 -1
ITEM: TIMESTEP
8500001
ITEM: NUMBER OF ATOMS
20
ITEM: BOX BOUNDS pp pp pp
0 200
0 200
0 200
ITEM: ATOMS id type mol x y z bP
0 0 0 168 47 159 -1
1 0 0 167 48 158 16
2 0 0 167 48 159 -1
3 0 0 166 48 158 18
4 0 0 165 48 157 14
5 0 0 165 49 156 12
6 0 0 164 49 157 -1
7 0 0 165 49 158 17
8 0 0 164 48 158 11
9 0 0 164 47 159 10
10 1 0 163 47 158 9
11 1 0 164 47 157 8
12 1 0 165 48 156 5
13 1 0 165 47 156 -1
14 1 0 166 47 157 4
15 1 0 165 46 157 -1
16 1 0 166 47 158 1
17 1 0 165 48 159 7
18 1 0 166 47 159 3
19 1 0 167 46 158 -1
ITEM: TIMESTEP
8750001
ITEM: NUMBER OF ATOMS
20
ITEM: BOX BOUNDS pp pp pp
0 200
0 200
0 200
ITEM: ATOMS id type mol x y z bP
0 0 0 158 46 157 13
1 0 0 159 46 157 12
2 0 0 159 45 157 14
3 0 0 160 44 158 15
4 0 0 160 45 157 11
5 0 0 159 44 158 16
6 0 0 158 44 157 17
7 0 0 158 45 156 -1
8 0 0 158 45 155 -1
9 0 0 159 44 156 10
10 1 0 160 43 155 9
11 1 0 160 44 156 4
12 1 0 159 45 156 1
13 1 0 158 45 157 0
14 1 0 159 45 158 2
15 1 0 159 44 159 3
16 1 0 158 44 158 5
17 1 0 158 43 158 6
18 1 0 157 43 159 -1
19 1 0 156 43 160 -1
ITEM: TIMESTEP
9000001
ITEM: NUMBER OF ATOMS
20
ITEM: BOX BOUNDS pp pp pp
0 200
0 200
0 200
ITEM: ATOMS id type mol x y z bP
0 0 0 165 51 153 -1
1 0 0 165 52 154 -1
2 0 0 165 51 154 -1
3 0 0 164 52 155 11
4 0 0 165 53 155 -1
5 0 0 164 52 156 -1
6 0 0 165 52 157 18
7 0 0 165 51 158 17
8 0 0 165 52 158 12
9 0 0 165 53 158 10
10 1 0 166 52 157 9
11 1 0 165 51 156 3
12 1 0 166 51 157 8
13 1 0 167 51 158 -1
14 1 0 166 50 159 -1
15 1 0 165 49 158 -1
16 1 0 165 50 158 -1
17 1 0 166 50 158 7
18 1 0 165 51 157 6
19 1 0 166 51 156 -1
ITEM: TIMESTEP
9250001
ITEM: NUMBER OF ATOMS
20
ITEM: BOX BOUNDS pp pp pp
0 200
0 200
0 200
ITEM: ATOMS id type mol x y z bP
0 0 0 163 46 161 17
1 0 0 163 47 160 16
2 0 0 162 48 161 19
3 0 0 162 47 160 15
4 0 0 161 48 160 11
5 0 0 161 49 160 12
6 0 0 162 50 159 -1
7 0 0 162 49 160 18
8 0 0 162 48 159 10
9 0 0 161 49 158 13
10 1 0 161 48 158 8
11 1 0 162 49 159 4
12 1 0 161 49 159 5
13 1 0 162 48 158 9
14 1 0 163 47 158 -1
15 1 0 162 47 159 3
16 1 0 162 48 160 1
17 1 0 162 47 161 0
18 1 0 161 48 161 7
19 1 0 161 48 162 2
ITEM: TIMESTEP
9500001
ITEM: NUMBER OF ATOMS
20
ITEM: BOX BOUNDS pp pp pp
0 200
0 200
0 200
ITEM: ATOMS id type mol x y z bP
0 0 0 168 52 166 16
1 0 0 169 52 165 15
2 0 0 169 53 165 13
3 0 0 170 54 165 11
4 0 0 170 55 166 -1
5 0 0 171 54 167 -1
6 0 0 171 53 166 -1
7 0 0 170 53 165 14
8 0 0 171 54 165 10
9 0 0 171 55 165 -1
10 1 0 170 55 165 8
11 1 0 170 54 166 3
12 1 0 169 55 167 -1
13 1 0 168 54 166 2
14 1 0 169 53 166 7
15 1 0 168 52 165 1
16 1 0 167 52 165 0
17 1 0 166 51 166 -1
18 1 0 165 52 165 -1
19 1 0 166 51 164 -1
ITEM: TIMESTEP
9750001
ITEM: NUMBER OF ATOMS
20
ITEM: BOX BOUNDS pp pp pp
0 200
0 200
0 200
ITEM: ATOMS id type mol x y z bP
0 0 0 174 49 167 17
1 0 0 173 50 168 12
2 0 0 173 49 169 16
3 0 0 174 49 170 -1
4 0 0 173 49 170 14
5 0 0 174 50 170 15
6 0 0 173 51 170 -1
7 0 0 172 50 170 11
8 0 0 171 49 169 19
9 0 0 170 49 169 10
10 1 0 170 50 169 9
11 1 0 171 50 169 7
12 1 0 172 50 169 1
13 1 0 172 51 168 -1
14 1 0 173 50 169 4
15 1 0 174 49 169 5
16 1 0 174 49 168 2
17 1 0 174 48 168 0
18 1 0 173 48 169 -1
19 1 0 172 48 170 8
ITEM: TIMESTEP
10000001
ITEM: NUMBER OF ATOMS
20
ITEM: BOX BOUNDS pp pp pp
0 200
0 200
0 200
ITEM: ATOMS id type mol x y z bP
0 0 0 178 46 173 -1
1 0 0 177 46 174 16
2 0 0 176 45 175 -1
3 0 0 176 44 176 17
4 0 0 177 43 175 11
5 0 0 177 43 174 18
6 0 0 176 44 175 15
7 0 0 175 43 174 14
8 0 0 175 43 173 12
9 0 0 176 42 173 13
10 1 0 177 41 174 -1
11 1 0 176 42 175 4
12 1 0 176 42 174 8
13 1 0 175 42 174 9
14 1 0 176 43 175 7
15 1 0 177 44 174 6
16 1 0 178 45 175 1
17 1 0 177 44 176 3
18 1 0 178 44 175 5
19 1 0 178 43 175 -1
ITEM: TIMESTEP
10250001
ITEM: NUMBER OF ATOMS
20
ITEM: BOX BOUNDS pp pp pp
0 200
0 200
0 200
ITEM: ATOMS id type mol x y z bP
0 0 0 181 41 169 12
1 0 0 182 42 170 15
2 0 0 183 42 171 -1
3 0 0 184 42 171 -1
4 0 0 183 41 171 -1
5 0 0 182 41 172 18
6 0 0 182 40 172 16
7 0 0 181 41 172 -1
8 0 0 180 41 171 17
9 0 0 179 41 170 19
10 1 0 180 41 170 -1
11 1 0 179 40 170 -1
12 1 0 180 40 170 0
13 1 0 181 40 170 -1
14 1 0 181 40 169 -1
15 1 0 182 41 170 1
16 1 0 181 40 171 6
17 1 0 181 41 171 8
18 1 0 181 42 171 5
19 1 0 180 42 170 9
ITEM: TIMESTEP
10500001
ITEM: NUMBER OF ATOMS
20
ITEM: BOX BOUNDS pp pp pp
0 200
0 200
0 200
ITEM: ATOMS id type mol x y z bP
0 0 0 183 45 169 -1
1 0 0 183 46 169 18
2 0 0 182 47 169 15
3 0 0 183 48 169 19
4 0 0 182 48 168 17
5 0 0 183 47 169 -1
6 0 0 182 46 168 16
7 0 0 181 46 168 13
8 0 0 180 46 168 11
9 0 0 180 46 167 12
10 1 0 181 45 167 -1
11 1 0 181 45 168 8
12 1 0 180 45 168 9
13 1 0 181 46 167 7
14 1 0 182 46 167 -1
15 1 0 181 47 168 2
16 1 0 182 47 168 6
17 1 0 182 48 169 4
18 1 0 183 47 168 1
19 1 0 184 48 169 3
ITEM: TIMESTEP
10750001
ITEM: NUMBER OF ATOMS
20
ITEM: BOX BOUNDS pp pp pp
0 200
0 200
0 200
ITEM: ATOMS id type mol x y z bP
0 0 0 187 50 170 17
1 0 0 188 51 171 -1
2 0 0 188 50 170 19
3 0 0 189 50 169 18
4 0 0 188 50 169 16
5 0 0 187 51 168 15
6 0 0 187 50 167 -1
7 0 0 188 49 166 11
8 0 0 189 49 167 13
9 0 0 189 50 168 12
10 1 0 188 49 167 -1
11 1 0 189 50 166 7
12 1 0 189 50 167 9
13 1 0 188 50 167 8
14 1 0 189 51 167 -1
15 1 0 188 52 168 5
16 1 0 188 51 168 4
17 1 0 188 51 169 0
18 1 0 189 51 170 3
19 1 0 188 50 171 2
ITEM: TIMESTEP
11000001
ITEM: NUMBER OF ATOMS
20
ITEM: BOX BOUNDS pp pp pp
0 200
0 200
0 200
ITEM: ATOMS id type mol x y z bP
0 0 0 186 51 174 -1
1 0 0 185 50 175 18
2 0 0 185 51 176 -1
3 0 0 184 52 175 16
4 0 0 184 53 174 13
5 0 0 183 54 174 11
6 0 0 184 54 173 14
7 0 0 183 55 173 12
8 0 0 182 54 173 -1
9 0 0 183 54 172 -1
10 1 0 183 55 172 -1
11 1 0 183 54 173 5
12 1 0 184 54 174 7
13 1 0 185 54 173 4
14 1 0 184 53 172 6
15 1 0 184 53 173 -1
16 1 0 185 52 174 3
17 1 0 186 52 173 -1
18 1 0 185 51 174 1
19 1 0 184 52 173 -1
ITEM: TIMESTEP
11250001
ITEM: NUMBER OF ATOMS
20
ITEM: BOX BOUNDS pp pp pp
0 200
0 200
0 200
ITEM: ATOMS id type mol x y z bP
0 0 0 189 50 175 -1
1 0 0 189 51 174 15
2 0 0 188 52 175 14
3 0 0 187 51 174 13
4 0 0 186 51 173 -1
5 0 0 186 52 172 -1
6 0 0 187 53 172 -1
7 0 0 186 52 173 12
8 0 0 186 53 173 11
9 0 0 185 52 172 10
10 1 0 185 53 173 9
11 1 0 186 54 172 8
12 1 0 187 53 173 7
13 1 0 188 52 174 3
14 1 0 189 52 174 2
15 1 0 190 52 175 1
16 1 0 189 52 176 -1
17 1 0 190 51 176 -1
18 1 0 191 50 177 -1
19 1 0 191 50 178 -1
ITEM: TIMESTEP
11500001
ITEM: NUMBER OF ATOMS
20
ITEM: BOX BOUNDS pp pp pp
0 200
0 200
0 200
ITEM: ATOMS id type mol x y z bP
0 0 0 184 51 170 17
1 0 0 185 52 171 18
2 0 0 184 53 170 19
3 0 0 184 54 171 10
4 0 0 185 54 170 -1
5 0 0 184 55 171 -1
6 0 0 185 55 171 12
7 0 0 185 55 172 13
8 0 0 185 56 173 -1
9 0 0 184 56 173 -1
10 1 0 183 55 172 3
11 1 0 183 54 172 -1
12 1 0 184 55 172 6
13 1 0 185 54 172 7
14 1 0 186 53 171 -1
15 1 0 186 52 171 -1
16 1 0 185 51 171 -1
17 1 0 184 52 171 0
18 1 0 184 53 171 1
19 1 0 185 54 171 2
ITEM: TIMESTEP
11750001
ITEM: NUMBER OF ATOMS
20
ITEM: BOX BOUNDS pp pp pp
0 200
0 200
0 200
ITEM: ATOMS id type mol x y z bP
0 0 0 177 54 182 -1
1 0 0 176 53 181 17
2 0 0 176 52 180 -1
3 0 0 177 52 180 16
4 0 0 178 53 181 -1
5 0 0 178 54 180 19
6 0 0 178 54 179 10
7 0 0 179 54 178 14
8 0 0 178 53 177 13
9 0 0 177 53 178 15
10 1 0 177 54 178 6
11 1 0 178 55 178 -1
12 1 0 177 54 177 -1
13 1 0 178 54 177 8
14 1 0 178 54 178 7
15 1 0 177 54 179 9
16 1 0 176 53 179 3
17 1 0 176 53 180 1
18 1 0 177 54 180 -1
19 1 0 177 53 181 5
ITEM: TIMESTEP
12000001
ITEM: NUMBER OF ATOMS
20
ITEM: BOX BOUNDS pp pp pp
0 200
0 200
0 200
ITEM: ATOMS id type mol x y z bP
0 0 0 175 52 175 -1
1 0 0 176 51 176 15
2 0 0 177 51 175 -1
3 0 0 177 50 176 16
4 0 0 176 49 177 13
5 0 0 176 50 178 -1
6 0 0 177 50 178 -1
7 0 0 177 51 179 -1
8 0 0 176 51 180 11
9 0 0 175 51 179 -1
10 1 0 174 51 179 -1
11 1 0 175 50 179 8
12 1 0 175 49 178 -1
13 1 0 175 50 177 4
14 1 0 176 50 176 -1
15 1 0 177 51 176 1
16 1 0 178 51 176 3
17 1 0 179 50 177 -1
18 1 0 180 50 176 -1
19 1 0 181 50 177 -1
ITEM: TIMESTEP
12250001
ITEM: NUMBER OF ATOMS
20
ITEM: BOX BOUNDS pp pp pp
0 200
0 200
0 200
ITEM: ATOMS id type mol x y z bP
0 0 0 177 51 168 -1
1 0 0 176 51 167 19
2 0 0 177 51 167 17
3 0 0 177 50 168 -1
4 0 0 177 49 168 -1
5 0 0 176 49 169 -1
6 0 0 177 50 169 16
7 0 0 178 50 170 14
8 0 0 179 50 170 10
9 0 0 178 49 169 -1
10 1 0 179 49 169 8
11 1 0 180 48 169 -1
12 1 0 180 49 169 -1
13 1 0 180 50 170 -1
14 1 0 179 51 169 7
15 1 0 179 51 168 -1
16 1 0 178 51 168 6
17 1 0 178 50 168 2
18 1 0 178 50 167 -1
19 1 0 177 51 166 1
ITEM: TIMESTEP
12500001
ITEM: NUMBER OF ATOMS
20
ITEM: BOX BOUNDS pp pp pp
0 200
0 200
0 200
ITEM: ATOMS id type mol x y z bP
0 0 0 174 53 169 -1
1 0 0 173 52 168 16
2 0 0 173 53 169 -1
3 0 0 172 52 169 18
4 0 0 172 51 169 10
5 0 0 172 52 170 15
6 0 0 171 51 169 17
7 0 0 172 50 169 -1
8 0 0 171 49 168 -1
9 0 0 171 50 169 11
10 1 0 171 50 170 4
11 1 0 172 51 170 9
12 1 0 172 51 171 -1
13 1 0 173 50 170 -1
14 1 0 174 51 169 -1
15 1 0 173 51 169 5
16 1 0 172 51 168 1
17 1 0 171 52 168 6
18 1 0 171 52 169 3
19 1 0 170 53 170 -1
ITEM: TIMESTEP
12750001
ITEM: NUMBER OF ATOMS
20
ITEM: BOX BOUNDS pp pp pp
0 200
0 200
0 200
ITEM: ATOMS id type mol x y z bP
0 0 0 164 48 168 11
1 0 0 164 47 167 12
2 0 0 165 46 167 18
3 0 0 165 45 168 -1
4 0 0 164 45 169 -1
5 0 0 164 45 168 14
6 0 0 165 45 169 -1
7 0 0 166 46 168 -1
8 0 0 165 45 167 16
9 0 0 164 46 168 10
10 1 0 165 47 168 9
11 1 0 165 48 168 0
12 1 0 165 47 167 1
13 1 0 164 47 168 -1
14 1 0 163 46 167 5
15 1 0 163 45 166 -1
16 1 0 164 46 166 8
17 1 0 165 46 165 -1
18 1 0 164 47 166 2
19 1 0 164 48 165 -1
ITEM: TIMESTEP
13000001
ITEM: NUMBER OF ATOMS
20
ITEM: BOX BOUNDS pp pp pp
0 200
0 200
0 200
ITEM: ATOMS id type mol x y z bP
0 0 0 169 48 167 19
1 0 0 170 48 166 -1
2 0 0 170 48 167 16
3 0 0 170 47 168 14
4 0 0 169 46 169 11
5 0 0 169 47 169 15
6 0 0 169 47 170 13
7 0 0 168 46 169 -1
8 0 0 168 45 168 -1
9 0 0 169 45 169 12
10 1 0 168 44 170 -1
11 1 0 168 45 169 4
12 1 0 169 45 170 9
13 1 0 170 46 170 6
14 1 0 171 46 169 3
15 1 0 170 47 169 5
16 1 0 170 48 168 2
17 1 0 171 48 169 -1
18 1 0 170 49 169 -1
19 1 0 169 49 168 0
ITEM: TIMESTEP
13250001
ITEM: NUMBER OF ATOMS
20
ITEM: BOX BOUNDS pp pp pp
0 200
0 200
0 200
ITEM: ATOMS id type mol x y z bP
0 0 0 169 52 165 16
1 0 0 170 51 165 18
2 0 0 171 51 166 15
3 0 0 171 52 167 -1
4 0 0 171 53 167 13
5 0 0 172 53 166 12
6 0 0 172 53 167 11
7 0 0 171 54 168 -1
8 0 0 171 53 168 -1
9 0 0 172 52 169 -1
10 1 0 172 51 169 -1
11 1 0 173 52 168 6
12 1 0 172 52 167 5
13 1 0 172 52 168 4
14 1 0 171 51 167 -1
15 1 0 170 51 166 2
16 1 0 170 52 165 0
17 1 0 169 51 166 -1
18 1 0 169 51 165 1
19 1 0 168 51 165 -1
ITEM: TIMESTEP
13500001
ITEM: NUMBER OF ATOMS
20
ITEM: BOX BOUNDS pp pp pp
0 200
0 200
0 200
ITEM: ATOMS id type mol x y z bP
0 0 0 169 52 167 11
1 0 0 168 51 167 -1
2 0 0 168 52 168 -1
3 0 0 169 53 167 18
4 0 0 170 52 168 19
5 0 0 169 53 168 10
6 0 0 168 53 167 -1
7 0 0 168 54 168 12
8 0 0 169 53 169 17
9 0 0 170 53 170 16
10 1 0 169 54 169 5
11 1 0 168 53 168 0
12 1 0 169 54 167 7
13 1 0 170 53 166 -1
14 1 0 171 54 167 -1
15 1 0 171 53 168 -1
16 1 0 170 52 169 9
17 1 0 169 52 168 8
18 1 0 170 53 168 3
19 1 0 171 53 169 4
ITEM: TIMESTEP
13750001
ITEM: NUMBER OF ATOMS
20
ITEM: BOX BOUNDS pp pp pp
0 200
0 200
0 200
ITEM: ATOMS id type mol x y z bP
0 0 0 165 46 166 -1
1 0 0 166 47 165 19
2 0 0 167 48 164 16
3 0 0 166 48 163 18
4 0 0 165 48 164 14
5 0 0 165 49 165 12
6 0 0 164 50 164 11
7 0 0 163 50 163 -1
8 0 0 163 50 162 -1
9 0 0 164 49 163 -1
10 1 0 165 50 164 -1
11 1 0 165 51 164 6
12 1 0 166 50 165 5
13 1 0 165 49 164 -1
14 1 0 166 48 165 4
15 1 0 167 47 165 -1
16 1 0 168 48 164 2
17 1 0 167 49 165 -1
18 1 0 167 49 164 3
19 1 0 166 48 164 1
ITEM: TIMESTEP
14000001
ITEM: NUMBER OF ATOMS
20
ITEM: BOX BOUNDS pp pp pp
0 200
0 200
0 200
ITEM: ATOMS id type mol x y z bP
0 0 0 159 49 158 -1
1 0 0 160 50 158 -1
2 0 0 159 51 159 -1
3 0 0 158 51 160 19
4 0 0 158 51 159 17
5 0 0 158 52 158 12
6 0 0 157 53 158 13
7 0 0 158 53 159 15
8 0 0 158 53 160 16
9 0 0 157 54 159 18
10 1 0 158 53 158 -1
11 1 0 157 54 158 -1