ITEM: TIMESTEP
0
ITEM: NUMBER OF ATOMS
20
ITEM: BOX BOUNDS pp pp pp
0 200
0 200
0 200
ITEM: ATOMS id type mol x y z bP
0 0 0 95 168 97 -1
1 0 0 95 168 96 19
2 0 0 95 169 95 13
3 0 0 95 168 94 17
4 0 0 94 167 93 16
5 0 0 93 166 93 12
6 0 0 93 166 92 -1
7 0 0 93 167 91 -1
8 0 0 92 168 92 -1
9 0 0 93 169 93 -1
10 1 0 94 169 94 -1
11 1 0 93 168 95 -1
12 1 0 94 167 94 5
13 1 0 95 168 95 2
14 1 0 95 167 95 -1
15 1 0 95 166 95 -1
16 1 0 94 166 94 4
17 1 0 95 167 94 3
18 1 0 94 168 95 -1
19 1 0 94 169 95 1
