ITEM: TIMESTEP
0
ITEM: NUMBER OF ATOMS
20
ITEM: BOX BOUNDS pp pp pp
0 200
0 200
0 200
ITEM: ATOMS id type mol x y z bP
0 0 0 27 43 145 -1
1 0 0 27 43 146 -1
2 0 0 26 44 146 -1
3 0 0 25 43 146 -1
4 0 0 24 43 146 14
5 0 0 24 42 145 15
6 0 0 24 41 146 12
7 0 0 25 40 146 19
8 0 0 26 41 147 -1
9 0 0 26 41 146 11
10 1 0 26 40 146 -1
11 1 0 25 41 146 9
12 1 0 24 41 145 6
13 1 0 25 42 146 -1
14 1 0 25 42 145 4
15 1 0 24 42 144 5
16 1 0 25 42 144 -1
17 1 0 25 41 145 -1
18 1 0 24 40 145 -1
19 1 0 25 40 145 7
