ITEM: TIMESTEP
0
ITEM: NUMBER OF ATOMS
20
ITEM: BOX BOUNDS pp pp pp
0 200
0 200
0 200
ITEM: ATOMS id type mol x y z bP
0 0 0 1 171 164 -1
1 0 0 2 170 165 -1
2 0 0 2 169 165 -1
3 0 0 2 168 166 -1
4 0 0 3 169 167 -1
5 0 0 4 170 168 -1
6 0 0 3 169 169 -1
7 0 0 3 169 170 -1
8 0 0 2 170 169 -1
9 0 0 1 170 168 -1
10 1 0 1 171 167 -1
11 1 0 1 172 167 -1
12 1 0 2 172 167 -1
13 1 0 3 172 168 -1
14 1 0 3 172 169 -1
15 1 0 4 172 168 -1
16 1 0 4 171 168 -1
17 1 0 5 171 168 -1
18 1 0 6 171 167 -1
19 1 0 5 170 168 -1
ITEM: TIMESTEP
250000
ITEM: NUMBER OF ATOMS
20
ITEM: BOX BOUNDS pp pp pp
0 200
0 200
0 200
ITEM: ATOMS id type mol x y z bP
0 0 0 11 100 188 -1
1 0 0 10 100 187 -1
2 0 0 11 101 187 -1
3 0 0 12 101 186 -1
4 0 0 13 100 186 -1
5 0 0 14 99 186 -1
6 0 0 14 98 185 -1
7 0 0 14 98 184 -1
8 0 0 14 97 183 -1
9 0 0 15 97 183 -1
10 1 0 14 98 183 -1
11 1 0 13 99 183 -1
12 1 0 14 100 183 -1
13 1 0 15 100 184 -1
14 1 0 16 100 185 -1
15 1 0 15 100 185 -1
16 1 0 15 101 186 -1
17 1 0 16 102 186 -1
18 1 0 16 103 186 -1
19 1 0 15 103 186 -1
ITEM: TIMESTEP
500000
ITEM: NUMBER OF ATOMS
20
ITEM: BOX BOUNDS pp pp pp
0 200
0 200
0 200
ITEM: ATOMS id type mol x y z bP
0 0 0 50 98 163 -1
1 0 0 49 99 162 -1
2 0 0 48 100 163 -1
3 0 0 49 100 163 -1
4 0 0 48 100 164 -1
5 0 0 47 100 165 -1
6 0 0 48 101 164 -1
7 0 0 48 102 164 -1
8 0 0 47 102 165 -1
9 0 0 48 103 164 -1
10 1 0 48 103 165 -1
11 1 0 48 104 164 -1
12 1 0 49 105 165 -1
13 1 0 48 104 166 -1
14 1 0 49 103 166 -1
15 1 0 49 104 167 -1
16 1 0 48 104 168 -1
17 1 0 47 105 168 -1
18 1 0 46 105 167 -1
19 1 0 45 106 167 -1
ITEM: TIMESTEP
750000
ITEM: NUMBER OF ATOMS
20
ITEM: BOX BOUNDS pp pp pp
0 200
0 200
0 200
ITEM: ATOMS id type mol x y z bP
0 0 0 40 88 155 -1
1 0 0 39 88 154 -1
2 0 0 38 88 154 -1
3 0 0 38 89 153 -1
4 0 0 38 88 152 -1
5 0 0 39 87 152 -1
6 0 0 38 86 152 -1
7 0 0 39 85 151 -1
8 0 0 39 84 151 -1
9 0 0 39 84 152 -1
10 1 0 40 83 151 -1
11 1 0 39 82 152 -1
12 1 0 40 81 151 -1
13 1 0 40 80 151 -1
14 1 0 39 81 152 -1
15 1 0 38 82 151 -1
16 1 0 38 82 150 -1
17 1 0 37 82 150 -1
18 1 0 36 81 150 -1
19 1 0 37 81 150 -1
ITEM: TIMESTEP
1000000
ITEM: NUMBER OF ATOMS
20
ITEM: BOX BOUNDS pp pp pp
0 200
0 200
0 200
ITEM: ATOMS id type mol x y z bP
0 0 0 104 38 3 -1
1 0 0 105 38 3 -1
2 0 0 105 38 4 -1
3 0 0 104 37 4 -1
4 0 0 103 36 3 -1
5 0 0 104 35 3 -1
6 0 0 104 35 4 -1
7 0 0 103 34 4 -1
8 0 0 102 33 4 -1
9 0 0 103 33 4 -1
10 1 0 104 32 5 -1
11 1 0 104 33 6 -1
12 1 0 104 34 7 -1
13 1 0 103 34 8 -1
14 1 0 102 34 8 -1
15 1 0 103 34 9 -1
16 1 0 103 34 10 -1
17 1 0 102 33 9 -1
18 1 0 101 34 10 -1
19 1 0 100 33 9 -1
ITEM: TIMESTEP
1250001
ITEM: NUMBER OF ATOMS
20
ITEM: BOX BOUNDS pp pp pp
0 200
0 200
0 200
ITEM: ATOMS id type mol x y z bP
0 0 0 101 34 199 11
1 0 0 100 35 0 10
2 0 0 101 35 1 17
3 0 0 100 34 1 -1
4 0 0 100 35 2 19
5 0 0 100 35 3 -1
6 0 0 101 34 2 16
7 0 0 100 33 1 -1
8 0 0 101 33 0 12
9 0 0 102 33 0 -1
10 1 0 101 34 0 1
11 1 0 102 33 199 0
12 1 0 101 33 199 8
13 1 0 100 33 199 -1
14 1 0 100 32 0 -1
15 1 0 100 32 1 -1
16 1 0 101 33 1 6
17 1 0 101 34 1 2
18 1 0 100 34 2 -1
19 1 0 99 34 1 4
ITEM: TIMESTEP
1500001
ITEM: NUMBER OF ATOMS
20
ITEM: BOX BOUNDS pp pp pp
0 200
0 200
0 200
ITEM: ATOMS id type mol x y z bP
0 0 0 104 42 195 17
1 0 0 105 43 195 16
2 0 0 106 42 194 19
3 0 0 105 41 194 10
4 0 0 104 40 194 11
5 0 0 103 41 195 13
6 0 0 102 42 196 12
7 0 0 103 41 197 14
8 0 0 104 42 196 15
9 0 0 105 42 195 18
10 1 0 104 41 194 3
11 1 0 103 40 194 4
12 1 0 102 41 195 6
13 1 0 103 41 196 5
14 1 0 104 41 197 7
15 1 0 104 42 197 8
16 1 0 104 43 196 1
17 1 0 104 43 195 0
18 1 0 105 43 194 9
19 1 0 106 42 193 2
ITEM: TIMESTEP
1750001
ITEM: NUMBER OF ATOMS
20
ITEM: BOX BOUNDS pp pp pp
0 200
0 200
0 200
ITEM: ATOMS id type mol x y z bP
0 0 0 98 43 195 -1
1 0 0 98 44 194 -1
2 0 0 99 45 194 -1
3 0 0 99 46 194 17
4 0 0 100 47 194 16
5 0 0 100 47 193 15
6 0 0 100 48 194 11
7 0 0 101 48 194 13
8 0 0 102 48 195 -1
9 0 0 101 49 196 10
10 1 0 100 48 196 9
11 1 0 101 49 195 6
12 1 0 101 49 194 -1
13 1 0 101 48 195 7
14 1 0 100 48 195 -1
15 1 0 99 48 194 5
16 1 0 99 47 193 4
17 1 0 99 46 193 3
18 1 0 98 47 194 -1
19 1 0 97 47 193 -1
ITEM: TIMESTEP
2000001
ITEM: NUMBER OF ATOMS
20
ITEM: BOX BOUNDS pp pp pp
0 200
0 200
0 200
ITEM: ATOMS id type mol x y z bP
0 0 0 98 46 2 14
1 0 0 99 45 1 -1
2 0 0 99 44 2 12
3 0 0 100 45 2 15
4 0 0 100 46 1 -1
5 0 0 101 45 1 13
6 0 0 102 44 0 -1
7 0 0 102 44 199 11
8 0 0 101 45 199 -1
9 0 0 100 44 0 10
10 1 0 100 43 1 9
11 1 0 101 44 0 7
12 1 0 100 45 1 2
13 1 0 100 46 0 5
14 1 0 99 46 1 0
15 1 0 99 46 2 3
16 1 0 100 46 3 -1
17 1 0 101 47 3 -1
18 1 0 100 47 2 -1
19 1 0 100 48 3 -1
ITEM: TIMESTEP
2250001
ITEM: NUMBER OF ATOMS
20
ITEM: BOX BOUNDS pp pp pp
0 200
0 200
0 200
ITEM: ATOMS id type mol x y z bP
0 0 0 97 46 0 -1
1 0 0 97 47 1 -1
2 0 0 98 47 1 -1
3 0 0 98 48 1 -1
4 0 0 99 49 2 12
5 0 0 98 50 2 -1
6 0 0 99 51 3 -1
7 0 0 99 50 4 11
8 0 0 100 50 5 10
9 0 0 99 50 5 -1
10 1 0 100 50 4 8
11 1 0 99 51 4 7
12 1 0 100 50 3 4
13 1 0 101 51 3 -1
14 1 0 101 50 3 -1
15 1 0 102 51 4 -1
16 1 0 103 51 3 -1
17 1 0 103 51 2 -1
18 1 0 103 50 2 -1
19 1 0 104 51 3 -1
ITEM: TIMESTEP
2500001
ITEM: NUMBER OF ATOMS
20
ITEM: BOX BOUNDS pp pp pp
0 200
0 200
0 200
ITEM: ATOMS id type mol x y z bP
0 0 0 100 51 7 17
1 0 0 99 51 6 14
2 0 0 99 50 6 12
3 0 0 98 50 6 13
4 0 0 99 50 5 11
5 0 0 98 49 4 -1
6 0 0 97 49 5 -1
7 0 0 98 50 4 -1
8 0 0 98 49 3 -1
9 0 0 97 49 4 -1
10 1 0 98 50 5 -1
11 1 0 98 51 6 4
12 1 0 98 50 7 2
13 1 0 99 49 7 3
14 1 0 99 50 7 1
15 1 0 100 50 6 -1
16 1 0 100 51 6 -1
17 1 0 101 52 7 0
18 1 0 102 52 7 -1
19 1 0 101 52 8 -1
ITEM: TIMESTEP
2750001
ITEM: NUMBER OF ATOMS
20
ITEM: BOX BOUNDS pp pp pp
0 200
0 200
0 200
ITEM: ATOMS id type mol x y z bP
0 0 0 100 42 9 -1
1 0 0 101 41 8 10
2 0 0 100 40 9 -1
3 0 0 99 41 9 12
4 0 0 100 40 8 14
5 0 0 100 41 7 -1
6 0 0 101 41 7 13
7 0 0 100 42 8 -1
8 0 0 101 42 8 -1
9 0 0 102 41 9 -1
10 1 0 101 40 9 1
11 1 0 100 40 10 -1
12 1 0 100 41 9 3
13 1 0 100 41 8 6
14 1 0 99 41 7 4
15 1 0 98 40 7 -1
16 1 0 97 39 6 -1
17 1 0 97 39 5 -1
18 1 0 98 39 4 -1
19 1 0 97 39 3 -1
ITEM: TIMESTEP
3000001
ITEM: NUMBER OF ATOMS
20
ITEM: BOX BOUNDS pp pp pp
0 200
0 200
0 200
ITEM: ATOMS id type mol x y z bP
0 0 0 94 46 6 14
1 0 0 93 47 6 -1
2 0 0 94 47 7 18
3 0 0 93 46 7 17
4 0 0 94 45 7 15
5 0 0 95 46 6 -1
6 0 0 96 46 7 -1
7 0 0 96 46 6 13
8 0 0 97 45 5 -1
9 0 0 97 44 5 10
10 1 0 96 45 6 9
11 1 0 95 44 6 -1
12 1 0 95 44 7 -1
13 1 0 96 45 7 7
14 1 0 95 45 6 0
15 1 0 94 45 6 4
16 1 0 93 45 6 -1
17 1 0 92 46 6 3
18 1 0 93 47 7 2
19 1 0 94 46 8 -1
ITEM: TIMESTEP
3250001
ITEM: NUMBER OF ATOMS
20
ITEM: BOX BOUNDS pp pp pp
0 200
0 200
0 200
ITEM: ATOMS id type mol x y z bP
0 0 0 94 41 186 -1
1 0 0 93 42 187 -1
2 0 0 94 42 188 19
3 0 0 93 42 189 17
4 0 0 93 41 190 18
5 0 0 93 42 190 15
6 0 0 94 42 191 16
7 0 0 93 43 191 11
8 0 0 94 43 192 13
9 0 0 94 44 193 12
10 1 0 94 45 192 -1
11 1 0 93 44 192 7
12 1 0 94 44 192 9
13 1 0 94 44 191 8
14 1 0 93 43 192 -1
15 1 0 94 43 191 5
16 1 0 93 42 191 6
17 1 0 93 43 190 3
18 1 0 92 42 189 4
19 1 0 93 41 189 2
ITEM: TIMESTEP
3500001
ITEM: NUMBER OF ATOMS
20
ITEM: BOX BOUNDS pp pp pp
0 200
0 200
0 200
ITEM: ATOMS id type mol x y z bP
0 0 0 98 45 192 13
1 0 0 97 44 192 16
2 0 0 96 43 193 19
3 0 0 96 44 193 18
4 0 0 97 45 192 -1
5 0 0 97 46 191 -1
6 0 0 96 46 191 12
7 0 0 97 45 191 10
8 0 0 96 44 191 14
9 0 0 96 45 190 -1
10 1 0 97 44 190 7
11 1 0 98 45 189 -1
12 1 0 97 45 190 6
13 1 0 98 44 191 0
14 1 0 97 43 191 8
15 1 0 97 43 192 -1
16 1 0 97 44 193 1
17 1 0 98 43 193 -1
18 1 0 97 43 193 3
19 1 0 97 42 194 2
ITEM: TIMESTEP
3750001
ITEM: NUMBER OF ATOMS
20
ITEM: BOX BOUNDS pp pp pp
0 200
0 200
0 200
ITEM: ATOMS id type mol x y z bP
0 0 0 94 42 188 11
1 0 0 93 43 188 -1
2 0 0 93 42 189 14
3 0 0 94 43 189 10
4 0 0 94 44 190 13
5 0 0 93 44 190 17
6 0 0 92 43 190 15
7 0 0 93 42 190 -1
8 0 0 94 42 190 -1
9 0 0 95 42 190 12
10 1 0 95 42 189 3
11 1 0 95 43 189 0
12 1 0 96 43 190 9
13 1 0 95 44 189 4
14 1 0 94 43 190 2
15 1 0 93 42 191 6
16 1 0 92 43 192 -1
17 1 0 93 44 191 5
18 1 0 92 44 192 -1
19 1 0 91 45 191 -1
ITEM: TIMESTEP
4000001
ITEM: NUMBER OF ATOMS
20
ITEM: BOX BOUNDS pp pp pp
0 200
0 200
0 200
ITEM: ATOMS id type mol x y z bP
0 0 0 90 47 193 -1
1 0 0 91 48 194 18
2 0 0 92 47 195 19
3 0 0 91 46 196 17
4 0 0 90 46 196 13
5 0 0 89 47 196 -1
6 0 0 88 47 195 16
7 0 0 87 46 194 15
8 0 0 88 47 194 14
9 0 0 87 46 193 -1
10 1 0 88 45 192 -1
11 1 0 89 46 193 -1
12 1 0 90 45 194 -1
13 1 0 90 46 195 4
14 1 0 89 46 195 8
15 1 0 88 46 194 7
16 1 0 89 47 194 6
17 1 0 90 47 195 3
18 1 0 91 47 194 1
19 1 0 91 48 195 2
ITEM: TIMESTEP
4250001
ITEM: NUMBER OF ATOMS
20
ITEM: BOX BOUNDS pp pp pp
0 200
0 200
0 200
ITEM: ATOMS id type mol x y z bP
0 0 0 85 46 195 -1
1 0 0 86 47 195 16
2 0 0 85 48 195 17
3 0 0 86 48 195 -1
4 0 0 87 49 196 -1
5 0 0 87 49 195 18
6 0 0 88 49 195 19
7 0 0 87 49 194 15
8 0 0 86 50 193 -1
9 0 0 87 49 193 14
10 1 0 88 49 192 -1
11 1 0 88 50 193 -1
12 1 0 87 50 192 -1
13 1 0 87 51 191 -1
14 1 0 88 50 192 9
15 1 0 88 49 193 7
16 1 0 87 48 194 1
17 1 0 86 49 194 2
18 1 0 87 48 195 5
19 1 0 88 48 195 6
ITEM: TIMESTEP
4500001
ITEM: NUMBER OF ATOMS
20
ITEM: BOX BOUNDS pp pp pp
0 200
0 200
0 200
ITEM: ATOMS id type mol x y z bP
0 0 0 86 53 195 16
1 0 0 85 52 194 -1
2 0 0 86 51 194 15
3 0 0 86 51 195 -1
4 0 0 85 50 194 -1
5 0 0 85 51 194 -1
6 0 0 86 52 195 -1
7 0 0 86 51 196 13
8 0 0 87 51 196 14
9 0 0 87 50 195 11
10 1 0 88 49 195 -1
11 1 0 88 49 196 9
12 1 0 87 50 197 -1
13 1 0 87 50 196 7
14 1 0 88 50 196 8
15 1 0 87 51 195 2
16 1 0 87 52 196 0
17 1 0 88 53 197 -1
18 1 0 88 54 198 -1
19 1 0 87 54 199 -1
ITEM: TIMESTEP
4750001
ITEM: NUMBER OF ATOMS
20
ITEM: BOX BOUNDS pp pp pp
0 200
0 200
0 200
ITEM: ATOMS id type mol x y z bP
0 0 0 85 55 191 -1
1 0 0 85 55 192 13
2 0 0 86 55 193 14
3 0 0 85 54 194 -1
4 0 0 85 53 194 -1
5 0 0 86 53 194 19
6 0 0 87 53 194 18
7 0 0 88 53 193 12
8 0 0 87 54 192 15
9 0 0 88 55 193 17
10 1 0 88 54 192 -1
11 1 0 88 53 191 -1
12 1 0 87 53 192 7
13 1 0 86 54 191 1
14 1 0 86 54 192 2
15 1 0 87 55 193 8
16 1 0 87 55 194 -1
17 1 0 88 54 194 9
18 1 0 88 54 193 6
19 1 0 87 53 193 5
ITEM: TIMESTEP
5000001
ITEM: NUMBER OF ATOMS
20
ITEM: BOX BOUNDS pp pp pp
0 200
0 200
0 200
ITEM: ATOMS id type mol x y z bP
0 0 0 80 56 4 -1
1 0 0 81 56 3 -1
2 0 0 81 55 3 12
3 0 0 81 54 3 15
4 0 0 81 55 2 14
5 0 0 82 54 2 -1
6 0 0 82 54 1 -1
7 0 0 82 55 2 -1
8 0 0 83 54 3 10
9 0 0 82 54 4 11
10 1 0 82 53 4 8
11 1 0 81 53 4 9
12 1 0 80 54 3 2
13 1 0 79 55 3 -1
14 1 0 80 56 3 4
15 1 0 80 55 2 3
16 1 0 81 56 1 -1
17 1 0 80 57 2 -1
18 1 0 79 57 3 -1
19 1 0 78 58 2 -1
ITEM: TIMESTEP
5250001
ITEM: NUMBER OF ATOMS
20
ITEM: BOX BOUNDS pp pp pp
0 200
0 200
0 200
ITEM: ATOMS id type mol x y z bP
0 0 0 85 60 3 15
1 0 0 86 60 2 -1
2 0 0 85 60 2 13
3 0 0 86 59 3 14
4 0 0 85 58 2 12
5 0 0 86 57 2 17
6 0 0 87 56 3 18
7 0 0 88 57 4 -1
8 0 0 87 56 4 19
9 0 0 86 57 4 11
10 1 0 85 57 3 -1
11 1 0 86 57 3 9
12 1 0 85 58 3 4
13 1 0 85 59 2 2
14 1 0 86 59 2 3
15 1 0 85 59 3 0
16 1 0 86 58 3 -1
17 1 0 86 58 2 5
18 1 0 87 57 3 6
19 1 0 88 57 3 8
ITEM: TIMESTEP
5500001
ITEM: NUMBER OF ATOMS
20
ITEM: BOX BOUNDS pp pp pp
0 200
0 200
0 200
ITEM: ATOMS id type mol x y z bP
0 0 0 87 54 199 -1
1 0 0 88 53 0 15
2 0 0 88 52 1 -1
3 0 0 87 52 1 -1
4 0 0 86 52 1 18
5 0 0 87 51 0 16
6 0 0 86 51 0 13
7 0 0 86 51 199 10
8 0 0 85 51 199 11
9 0 0 86 50 198 -1
10 1 0 86 51 198 7
11 1 0 85 50 198 8
12 1 0 84 51 199 -1
13 1 0 85 51 0 6
14 1 0 86 52 199 -1
15 1 0 87 53 0 1
16 1 0 86 52 0 5
17 1 0 86 53 1 -1
18 1 0 85 52 2 4
19 1 0 85 52 3 -1
ITEM: TIMESTEP
5750001
ITEM: NUMBER OF ATOMS
20
ITEM: BOX BOUNDS pp pp pp
0 200
0 200
0 200
ITEM: ATOMS id type mol x y z bP
0 0 0 84 55 10 -1
1 0 0 83 55 11 -1
2 0 0 83 56 12 14
3 0 0 82 56 13 16
4 0 0 83 57 13 -1
5 0 0 82 56 12 11
6 0 0 81 57 11 13
7 0 0 82 57 10 10
8 0 0 81 56 11 15
9 0 0 82 56 10 12
10 1 0 83 57 11 7
11 1 0 82 57 11 5
12 1 0 83 56 11 9
13 1 0 82 57 12 6
14 1 0 82 56 11 2
15 1 0 81 56 12 8
16 1 0 81 57 13 3
17 1 0 82 58 14 -1
18 1 0 81 57 15 -1
19 1 0 80 56 15 -1
ITEM: TIMESTEP
6000001
ITEM: NUMBER OF ATOMS
20
ITEM: BOX BOUNDS pp pp pp
0 200
0 200
0 200
ITEM: ATOMS id type mol x y z bP
0 0 0 78 60 14 15
1 0 0 78 61 15 -1
2 0 0 79 61 15 13
3 0 0 78 62 16 -1
4 0 0 79 61 17 17
5 0 0 78 60 16 16
6 0 0 79 61 16 14
7 0 0 79 60 15 -1
8 0 0 79 61 14 12
9 0 0 79 60 14 10
10 1 0 80 61 13 9
11 1 0 80 62 13 -1
12 1 0 79 62 14 8
13 1 0 80 61 15 2
14 1 0 80 60 15 6
15 1 0 79 59 15 0
16 1 0 78 59 16 5
17 1 0 79 60 17 4
18 1 0 80 61 18 -1
19 1 0 81 61 18 -1
ITEM: TIMESTEP
6250001
ITEM: NUMBER OF ATOMS
20
ITEM: BOX BOUNDS pp pp pp
0 200
0 200
0 200
ITEM: ATOMS id type mol x y z bP
0 0 0 74 56 16 17
1 0 0 73 57 17 -1
2 0 0 73 56 17 18
3 0 0 72 57 17 13
4 0 0 72 58 18 -1
5 0 0 73 58 18 12
6 0 0 74 59 19 11
7 0 0 75 59 19 -1
8 0 0 76 58 18 -1
9 0 0 75 58 17 10
10 1 0 74 57 18 9
11 1 0 74 58 18 6
12 1 0 73 59 18 5
13 1 0 72 58 17 3
14 1 0 71 57 17 -1
15 1 0 72 56 18 -1
16 1 0 72 55 17 -1
17 1 0 73 56 16 0
18 1 0 74 55 16 2
19 1 0 75 56 16 -1
ITEM: TIMESTEP
6500001
ITEM: NUMBER OF ATOMS
20
ITEM: BOX BOUNDS pp pp pp
0 200
0 200
0 200
ITEM: ATOMS id type mol x y z bP
0 0 0 81 61 15 -1
1 0 0 81 61 16 17
2 0 0 81 60 17 -1
3 0 0 82 60 17 10
4 0 0 82 59 16 -1
5 0 0 81 58 15 -1
6 0 0 81 59 16 11
7 0 0 80 59 15 18
8 0 0 81 59 14 14
9 0 0 81 59 15 13
10 1 0 81 60 16 3
11 1 0 80 60 16 6
12 1 0 79 59 15 -1
13 1 0 80 59 14 9
14 1 0 81 60 15 8
15 1 0 80 61 16 -1
16 1 0 80 61 17 -1
17 1 0 80 60 17 1
18 1 0 79 60 16 7
19 1 0 78 60 15 -1
ITEM: TIMESTEP
6750001
ITEM: NUMBER OF ATOMS
20
ITEM: BOX BOUNDS pp pp pp
0 200
0 200
0 200
ITEM: ATOMS id type mol x y z bP
0 0 0 81 61 14 -1
1 0 0 82 60 14 -1
2 0 0 81 59 14 -1
3 0 0 80 58 13 11
4 0 0 79 59 14 17
5 0 0 79 58 15 18
6 0 0 78 57 16 13
7 0 0 77 58 15 14
8 0 0 78 57 14 16
9 0 0 77 57 13 10
10 1 0 78 58 13 9
11 1 0 79 57 13 3
12 1 0 79 58 14 -1
13 1 0 78 57 15 6
14 1 0 77 58 14 7
15 1 0 77 59 14 -1
16 1 0 78 58 14 8
17 1 0 79 59 15 4
18 1 0 80 59 14 5
19 1 0 81 60 14 -1
ITEM: TIMESTEP
7000001
ITEM: NUMBER OF ATOMS
20
ITEM: BOX BOUNDS pp pp pp
0 200
0 200
0 200
ITEM: ATOMS id type mol x y z bP
0 0 0 77 60 14 17
1 0 0 76 59 13 -1
2 0 0 75 58 12 16
3 0 0 74 59 13 15
4 0 0 75 59 13 14
5 0 0 74 58 12 13
6 0 0 73 58 12 12
7 0 0 73 58 11 10
8 0 0 72 57 11 -1
9 0 0 72 56 11 11
10 1 0 73 57 12 7
11 1 0 72 57 12 9
12 1 0 72 57 13 6
13 1 0 73 57 13 5
14 1 0 74 58 13 4
15 1 0 75 58 14 3
16 1 0 76 58 13 2
17 1 0 76 59 14 0
18 1 0 77 58 13 -1
19 1 0 78 59 14 -1
ITEM: TIMESTEP
7250001
ITEM: NUMBER OF ATOMS
20
ITEM: BOX BOUNDS pp pp pp
0 200
0 200
0 200
ITEM: ATOMS id type mol x y z bP
0 0 0 77 56 9 18
1 0 0 76 55 8 -1
2 0 0 76 56 7 17
3 0 0 76 55 7 15
4 0 0 77 55 8 16
5 0 0 78 56 7 -1
6 0 0 79 55 8 12
7 0 0 78 56 8 10
8 0 0 78 55 8 11
9 0 0 79 54 9 14
10 1 0 79 55 9 7
11 1 0 78 54 8 8
12 1 0 78 55 9 6
13 1 0 79 54 10 -1
14 1 0 78 53 9 9
15 1 0 77 54 8 3
16 1 0 78 55 7 4
17 1 0 77 56 8 2
18 1 0 76 56 8 0
19 1 0 75 56 7 -1
ITEM: TIMESTEP
7500001
ITEM: NUMBER OF ATOMS
20
ITEM: BOX BOUNDS pp pp pp
0 200
0 200
0 200
ITEM: ATOMS id type mol x y z bP
0 0 0 80 46 6 17
1 0 0 79 47 6 16
2 0 0 80 48 5 19
3 0 0 80 48 4 -1
4 0 0 80 47 4 18
5 0 0 80 48 3 -1
6 0 0 81 47 3 -1
7 0 0 80 46 4 15
8 0 0 80 45 5 13
9 0 0 79 44 5 11
10 1 0 80 43 5 -1
11 1 0 79 44 6 9
12 1 0 78 43 5 -1
13 1 0 79 44 4 8
14 1 0 78 45 4 -1
15 1 0 79 45 5 7
16 1 0 78 46 5 1
17 1 0 79 47 5 0
18 1 0 79 48 4 4
19 1 0 80 47 5 2
ITEM: TIMESTEP
7750001
ITEM: NUMBER OF ATOMS
20
ITEM: BOX BOUNDS pp pp pp
0 200
0 200
0 200
ITEM: ATOMS id type mol x y z bP
0 0 0 78 43 10 17
1 0 0 77 44 11 15
2 0 0 77 45 12 14
3 0 0 78 44 11 13
4 0 0 78 45 10 -1
5 0 0 79 44 9 12
6 0 0 78 45 9 10
7 0 0 77 44 8 -1
8 0 0 78 45 8 11
9 0 0 79 44 8 -1
10 1 0 79 45 9 6
11 1 0 79 46 9 8
12 1 0 80 45 10 5
13 1 0 79 45 11 3
14 1 0 78 45 11 2
15 1 0 77 44 12 1
16 1 0 78 43 11 -1
17 1 0 79 43 10 0
18 1 0 78 42 9 -1
19 1 0 77 42 8 -1
ITEM: TIMESTEP
8000001
ITEM: NUMBER OF ATOMS
20
ITEM: BOX BOUNDS pp pp pp
0 200
0 200
0 200
ITEM: ATOMS id type mol x y z bP
0 0 0 77 38 10 -1
1 0 0 78 38 11 14
2 0 0 78 37 12 12
3 0 0 77 36 11 -1
4 0 0 77 37 10 13
5 0 0 76 37 10 17
6 0 0 76 36 11 -1
7 0 0 77 37 12 15
8 0 0 77 36 13 -1
9 0 0 76 35 12 10
10 1 0 75 36 11 9
11 1 0 76 37 11 -1
12 1 0 77 36 12 2
13 1 0 78 37 11 4
14 1 0 78 38 12 1
15 1 0 77 38 13 7
16 1 0 78 39 12 -1
17 1 0 77 38 11 5
18 1 0 77 39 12 -1
19 1 0 78 39 11 -1
ITEM: TIMESTEP
8250001
ITEM: NUMBER OF ATOMS
20
ITEM: BOX BOUNDS pp pp pp
0 200
0 200
0 200
ITEM: ATOMS id type mol x y z bP
0 0 0 78 36 19 -1
1 0 0 77 35 18 -1
2 0 0 76 34 17 11
3 0 0 75 33 18 -1
4 0 0 75 32 17 12
5 0 0 74 32 17 14
6 0 0 73 31 16 -1
7 0 0 74 32 16 15
8 0 0 74 31 16 13
9 0 0 75 32 15 10
10 1 0 76 32 16 9
11 1 0 75 33 16 2
12 1 0 74 33 17 4
13 1 0 75 32 16 8
14 1 0 75 31 16 5
15 1 0 75 31 15 7
16 1 0 76 30 14 -1
17 1 0 75 31 14 -1
18 1 0 76 31 15 -1
19 1 0 77 32 15 -1
ITEM: TIMESTEP
8500001
ITEM: NUMBER OF ATOMS
20
ITEM: BOX BOUNDS pp pp pp
0 200
0 200
0 200
ITEM: ATOMS id type mol x y z bP
0 0 0 75 26 10 18
1 0 0 76 27 11 19
2 0 0 77 28 12 -1
3 0 0 76 28 11 14
4 0 0 76 27 12 17
5 0 0 75 27 12 15
6 0 0 74 28 11 11
7 0 0 73 29 12 12
8 0 0 72 28 12 10
9 0 0 72 29 12 -1
10 1 0 73 29 13 8
11 1 0 74 29 12 6
12 1 0 74 28 12 7
13 1 0 75 27 13 -1
14 1 0 76 28 12 3
15 1 0 75 27 11 5
16 1 0 75 27 10 -1
17 1 0 76 26 11 4
18 1 0 76 25 11 0
19 1 0 76 26 10 1
ITEM: TIMESTEP
8750001
ITEM: NUMBER OF ATOMS
20
ITEM: BOX BOUNDS pp pp pp
0 200
0 200
0 200
ITEM: ATOMS id type mol x y z bP
0 0 0 78 33 9 -1
1 0 0 77 32 9 -1
2 0 0 78 31 10 -1
3 0 0 78 30 11 -1
4 0 0 78 29 10 -1
5 0 0 79 29 10 14
6 0 0 80 28 10 16
7 0 0 79 28 9 11
8 0 0 78 27 8 10
9 0 0 77 28 8 12
10 1 0 77 27 7 8
11 1 0 78 28 8 7
12 1 0 78 28 9 9
13 1 0 77 29 10 -1
14 1 0 78 28 11 5
15 1 0 78 28 10 -1
16 1 0 79 27 10 6
17 1 0 78 27 10 -1
18 1 0 79 26 9 -1
19 1 0 80 25 8 -1
ITEM: TIMESTEP
9000001
ITEM: NUMBER OF ATOMS
20
ITEM: BOX BOUNDS pp pp pp
0 200
0 200
0 200
ITEM: ATOMS id type mol x y z bP
0 0 0 75 23 2 13
1 0 0 76 23 1 14
2 0 0 77 22 1 -1
3 0 0 76 23 0 -1
4 0 0 75 23 199 15
5 0 0 74 23 0 10
6 0 0 74 24 1 12
7 0 0 75 25 0 16
8 0 0 74 24 199 -1
9 0 0 74 25 0 11
10 1 0 73 24 0 5
11 1 0 74 25 1 9
12 1 0 75 24 2 6
13 1 0 75 24 1 0
14 1 0 76 24 0 1
15 1 0 75 24 0 4
16 1 0 76 25 0 7
17 1 0 76 26 1 -1
18 1 0 77 25 0 -1
19 1 0 76 25 199 -1
ITEM: TIMESTEP
9250001
ITEM: NUMBER OF ATOMS
20
ITEM: BOX BOUNDS pp pp pp
0 200
0 200
0 200
ITEM: ATOMS id type mol x y z bP
0 0 0 84 22 3 14
1 0 0 84 23 2 -1
2 0 0 83 24 2 15
3 0 0 82 23 3 16
4 0 0 83 24 4 12
5 0 0 84 24 5 -1
6 0 0 85 24 4 11
7 0 0 84 25 4 10
8 0 0 85 24 5 -1
9 0 0 84 24 6 -1
10 1 0 83 24 5 7
11 1 0 84 23 5 6
12 1 0 83 23 4 4
13 1 0 84 24 3 -1
14 1 0 84 23 3 0
15 1 0 83 24 3 2
16 1 0 82 24 4 3
17 1 0 81 25 3 -1
18 1 0 80 26 4 -1
19 1 0 79 26 5 -1
ITEM: TIMESTEP
9500001
ITEM: NUMBER OF ATOMS
20
ITEM: BOX BOUNDS pp pp pp
0 200
0 200
0 200
ITEM: ATOMS id type mol x y z bP
0 0 0 78 25 197 -1
1 0 0 79 24 198 17
2 0 0 79 25 197 -1
3 0 0 80 25 198 10
4 0 0 79 24 199 -1
5 0 0 80 24 199 16
6 0 0 81 24 199 15
7 0 0 81 24 0 12
8 0 0 82 23 199 13
9 0 0 82 24 198 -1
10 1 0 81 24 198 3
11 1 0 82 25 199 -1
12 1 0 82 24 199 7
13 1 0 81 23 0 8
14 1 0 80 23 0 -1
15 1 0 80 24 0 6
16 1 0 79 24 0 5
17 1 0 79 23 199 1
18 1 0 78 22 0 -1
19 1 0 79 22 1 -1
ITEM: TIMESTEP
9750001
ITEM: NUMBER OF ATOMS
20
ITEM: BOX BOUNDS pp pp pp
0 200
0 200
0 200
ITEM: ATOMS id type mol x y z bP
0 0 0 86 24 195 -1
1 0 0 86 23 196 -1
2 0 0 85 22 195 17
3 0 0 86 22 196 14
4 0 0 85 21 196 15
5 0 0 85 21 197 12
6 0 0 86 20 198 11
7 0 0 87 21 197 -1
8 0 0 87 20 197 -1
9 0 0 86 20 197 10
10 1 0 85 19 198 9
11 1 0 85 20 197 6
12 1 0 86 21 196 5
13 1 0 86 22 195 -1
14 1 0 87 21 196 3
15 1 0 86 20 196 4
16 1 0 86 21 195 -1
17 1 0 85 22 196 2
18 1 0 84 21 197 -1
19 1 0 83 20 197 -1
ITEM: TIMESTEP
10000001
ITEM: NUMBER OF ATOMS
20
ITEM: BOX BOUNDS pp pp pp
0 200
0 200
0 200
ITEM: ATOMS id type mol x y z bP
0 0 0 83 22 199 10
1 0 0 84 23 199 12
2 0 0 85 24 199 -1
3 0 0 86 25 199 18
4 0 0 85 24 0 17
5 0 0 84 25 199 15
6 0 0 84 24 0 -1
7 0 0 85 23 199 -1
8 0 0 84 24 199 14
9 0 0 83 23 0 13
10 1 0 82 23 0 0
11 1 0 82 24 1 -1
12 1 0 83 24 0 1
13 1 0 82 24 0 9
14 1 0 83 25 199 8
15 1 0 83 26 0 5
16 1 0 84 26 0 -1
17 1 0 85 25 1 4
18 1 0 85 25 0 3
19 1 0 86 24 0 -1
ITEM: TIMESTEP
10250001
ITEM: NUMBER OF ATOMS
20
ITEM: BOX BOUNDS pp pp pp
0 200
0 200
0 200
ITEM: ATOMS id type mol x y z bP
0 0 0 73 22 1 -1
1 0 0 74 21 2 -1
2 0 0 75 22 3 17
3 0 0 76 21 2 16
4 0 0 77 22 3 13
5 0 0 76 23 2 14
6 0 0 76 22 3 -1
7 0 0 75 23 2 12
8 0 0 75 24 3 -1
9 0 0 74 24 2 10
10 1 0 74 23 3 9
11 1 0 75 23 3 -1
12 1 0 76 24 2 7
13 1 0 77 23 2 4
14 1 0 77 24 1 5
15 1 0 76 23 0 -1
16 1 0 75 22 1 3
17 1 0 75 22 2 2
18 1 0 74 22 3 -1
19 1 0 73 23 4 -1
ITEM: TIMESTEP
10500001
ITEM: NUMBER OF ATOMS
20
ITEM: BOX BOUNDS pp pp pp
0 200
0 200
0 200
ITEM: ATOMS id type mol x y z bP
0 0 0 71 21 4 14
1 0 0 70 20 4 -1
2 0 0 71 19 4 17
3 0 0 72 20 4 -1
4 0 0 71 20 3 13
5 0 0 72 21 3 15
6 0 0 72 22 3 10
7 0 0 72 23 2 12
8 0 0 72 22 2 11
9 0 0 73 21 3 18
10 1 0 73 22 3 6
11 1 0 73 23 2 8
12 1 0 73 22 2 7
13 1 0 72 21 2 4
14 1 0 71 21 3 0
15 1 0 71 20 2 5
16 1 0 70 20 3 -1
17 1 0 71 19 3 2
18 1 0 72 20 2 9
19 1 0 73 20 1 -1
ITEM: TIMESTEP
10750001
ITEM: NUMBER OF ATOMS
20
ITEM: BOX BOUNDS pp pp pp
0 200
0 200
0 200
ITEM: ATOMS id type mol x y z bP
0 0 0 73 27 6 12
1 0 0 74 27 7 11
2 0 0 73 28 7 -1
3 0 0 72 27 7 14
4 0 0 71 26 6 16
5 0 0 72 25 6 15
6 0 0 73 24 5 13
7 0 0 73 25 5 17
8 0 0 73 26 4 19
9 0 0 74 27 5 10
10 1 0 75 27 5 9
11 1 0 74 27 6 1
12 1 0 74 26 6 0
13 1 0 73 25 6 6
14 1 0 73 26 6 3
15 1 0 72 26 5 5
16 1 0 72 25 5 4
17 1 0 72 25 4 7
18 1 0 73 25 4 -1
19 1 0 73 25 3 8
ITEM: TIMESTEP
11000001
ITEM: NUMBER OF ATOMS
20
ITEM: BOX BOUNDS pp pp pp
0 200
0 200
0 200
ITEM: ATOMS id type mol x y z bP
0 0 0 65 28 15 16
1 0 0 65 29 14 15
2 0 0 64 28 13 17
3 0 0 65 27 12 -1
4 0 0 65 26 12 18
5 0 0 66 27 13 14
6 0 0 67 26 12 -1
7 0 0 67 27 12 12
8 0 0 68 27 11 11
9 0 0 68 26 11 10
10 1 0 67 26 11 9
11 1 0 68 27 12 8
12 1 0 68 28 12 7
13 1 0 67 27 11 -1
14 1 0 66 28 12 5
15 1 0 65 28 13 1
16 1 0 64 28 14 0
17 1 0 65 27 13 2
18 1 0 64 26 13 4
19 1 0 63 25 14 -1
ITEM: TIMESTEP
11250001
ITEM: NUMBER OF ATOMS
20
ITEM: BOX BOUNDS pp pp pp
0 200
0 200
0 200
ITEM: ATOMS id type mol x y z bP
0 0 0 55 26 11 -1
1 0 0 55 27 11 12
2 0 0 54 27 10 -1
3 0 0 55 27 10 11
4 0 0 56 26 11 14
5 0 0 55 26 12 13
6 0 0 56 26 12 15
7 0 0 55 27 13 -1
8 0 0 55 26 13 -1
9 0 0 55 27 12 10
10 1 0 54 26 11 9
11 1 0 54 27 11 3
12 1 0 55 26 10 1
13 1 0 55 25 11 5
14 1 0 56 25 12 4
15 1 0 57 25 11 6
16 1 0 58 26 10 -1
17 1 0 59 26 10 -1
18 1 0 60 27 10 -1
19 1 0 61 28 10 -1
ITEM: TIMESTEP
11500001
ITEM: NUMBER OF ATOMS
20
ITEM: BOX BOUNDS pp pp pp
0 200
0 200
0 200
ITEM: ATOMS id type mol x y z bP
0 0 0 52 24 6 12
1 0 0 53 25 7 14
2 0 0 53 26 7 11
3 0 0 53 25 6 17
4 0 0 54 25 7 16
5 0 0 54 24 6 -1
6 0 0 53 24 6 19
7 0 0 52 23 7 -1
8 0 0 53 24 8 -1
9 0 0 54 24 8 10
10 1 0 53 25 9 9
11 1 0 54 25 8 2
12 1 0 53 24 7 0
13 1 0 52 25 6 -1
14 1 0 53 26 6 1
15 1 0 52 26 7 -1
16 1 0 53 25 8 4
17 1 0 54 24 7 3
18 1 0 53 23 6 -1
19 1 0 54 24 5 6
ITEM: TIMESTEP
11750001
ITEM: NUMBER OF ATOMS
20
ITEM: BOX BOUNDS pp pp pp
0 200
0 200
0 200
ITEM: ATOMS id type mol x y z bP
0 0 0 57 25 4 12
1 0 0 58 24 5 -1
2 0 0 58 24 4 14
3 0 0 59 24 3 15
4 0 0 59 25 4 13
5 0 0 59 26 3 17
6 0 0 60 25 3 18
7 0 0 60 26 4 16
8 0 0 61 27 4 19
9 0 0 60 27 3 10
10 1 0 59 27 3 9
11 1 0 58 26 2 -1
12 1 0 58 25 3 0
13 1 0 59 26 4 4
14 1 0 58 25 4 2
15 1 0 59 24 4 3
16 1 0 59 25 3 7
17 1 0 60 26 3 5
18 1 0 61 26 4 6
19 1 0 60 27 5 8
ITEM: TIMESTEP
12000001
ITEM: NUMBER OF ATOMS
20
ITEM: BOX BOUNDS pp pp pp
0 200
0 200
0 200
ITEM: ATOMS id type mol x y z bP
0 0 0 56 29 194 17
1 0 0 55 28 194 14
2 0 0 54 28 195 -1
3 0 0 55 27 194 -1
4 0 0 56 27 194 -1
5 0 0 57 27 195 13
6 0 0 58 26 195 11
7 0 0 58 27 195 12
8 0 0 57 28 194 15
9 0 0 58 28 194 10
10 1 0 58 27 194 9
11 1 0 57 26 194 6
12 1 0 57 27 194 7
13 1 0 56 28 194 5
14 1 0 56 28 193 1
15 1 0 57 28 193 8
16 1 0 56 28 192 -1
17 1 0 56 29 193 0
18 1 0 55 30 193 -1
19 1 0 54 31 193 -1
ITEM: TIMESTEP
12250001
ITEM: NUMBER OF ATOMS
20
ITEM: BOX BOUNDS pp pp pp
0 200
0 200
0 200
ITEM: ATOMS id type mol x y z bP
0 0 0 51 30 189 -1
1 0 0 51 29 188 17
2 0 0 50 28 187 -1
3 0 0 51 27 188 14
4 0 0 51 27 189 15
5 0 0 51 26 190 11
6 0 0 50 25 190 -1
7 0 0 51 24 190 -1
8 0 0 51 25 191 12
9 0 0 52 25 191 10
10 1 0 51 26 192 9
11 1 0 52 26 191 5
12 1 0 51 25 190 8
13 1 0 51 25 189 -1
14 1 0 50 26 189 3
15 1 0 50 27 189 4
16 1 0 51 28 189 -1
17 1 0 50 28 189 1
18 1 0 49 28 190 -1
19 1 0 48 29 190 -1
ITEM: TIMESTEP
12500001
ITEM: NUMBER OF ATOMS
20
ITEM: BOX BOUNDS pp pp pp
0 200
0 200
0 200
ITEM: ATOMS id type mol x y z bP
0 0 0 42 20 187 18
1 0 0 43 21 188 16
2 0 0 43 21 187 -1
3 0 0 42 21 187 17
4 0 0 43 22 187 15
5 0 0 44 22 186 13
6 0 0 43 23 185 11
7 0 0 44 24 186 -1
8 0 0 43 25 187 12
9 0 0 42 24 187 10
10 1 0 42 25 187 9
11 1 0 43 24 186 6
12 1 0 44 24 187 8
13 1 0 44 23 186 5
14 1 0 43 24 187 -1
15 1 0 42 23 188 4
16 1 0 42 22 188 1
17 1 0 42 21 188 3
18 1 0 43 20 188 0
19 1 0 43 21 189 -1
ITEM: TIMESTEP
12750001
ITEM: NUMBER OF ATOMS
20
ITEM: BOX BOUNDS pp pp pp
0 200
0 200
0 200
ITEM: ATOMS id type mol x y z bP
0 0 0 49 25 185 18
1 0 0 49 25 186 17
2 0 0 49 25 187 -1
3 0 0 50 25 187 19
4 0 0 50 25 186 -1
5 0 0 51 26 187 -1
6 0 0 50 27 188 16
7 0 0 50 26 187 15
8 0 0 51 25 188 12
9 0 0 50 25 188 10
10 1 0 49 24 189 9
11 1 0 50 23 189 -1
12 1 0 50 24 189 8
13 1 0 49 25 188 -1
14 1 0 50 26 189 -1
15 1 0 50 26 188 7
16 1 0 49 27 187 6
17 1 0 50 26 186 1
18 1 0 50 26 185 0
19 1 0 51 25 186 3
ITEM: TIMESTEP
13000001
ITEM: NUMBER OF ATOMS
20
ITEM: BOX BOUNDS pp pp pp
0 200
0 200
0 200
ITEM: ATOMS id type mol x y z bP
0 0 0 50 32 183 12
1 0 0 49 32 182 19
2 0 0 48 31 182 -1
3 0 0 49 31 183 -1
4 0 0 50 32 182 18
5 0 0 51 32 183 11
6 0 0 52 32 184 17
7 0 0 52 31 185 14
8 0 0 53 32 184 15
9 0 0 52 31 184 16
10 1 0 51 30 183 -1
11 1 0 51 31 183 5
12 1 0 51 32 184 0
13 1 0 52 33 184 -1
14 1 0 52 32 185 7
15 1 0 53 31 185 8
16 1 0 52 30 184 9
17 1 0 52 31 183 6
18 1 0 51 32 182 4
19 1 0 50 31 182 1
ITEM: TIMESTEP
13250001
ITEM: NUMBER OF ATOMS
20
ITEM: BOX BOUNDS pp pp pp
0 200
0 200
0 200
ITEM: ATOMS id type mol x y z bP
0 0 0 51 27 172 16
1 0 0 50 26 172 -1
2 0 0 50 27 173 18
3 0 0 50 27 172 10
4 0 0 49 27 172 13
5 0 0 49 28 173 -1
6 0 0 48 29 173 15
7 0 0 48 28 172 11
8 0 0 47 28 171 14
9 0 0 48 28 171 -1
10 1 0 49 27 171 3
11 1 0 49 28 171 7
12 1 0 48 27 172 -1
13 1 0 49 28 172 4
14 1 0 48 29 172 8
15 1 0 49 29 172 6
16 1 0 50 28 172 0
17 1 0 51 28 172 -1
18 1 0 51 28 173 2
19 1 0 52 29 174 -1
ITEM: TIMESTEP
13500001
ITEM: NUMBER OF ATOMS
20
ITEM: BOX BOUNDS pp pp pp
0 200
0 200
0 200
ITEM: ATOMS id type mol x y z bP
0 0 0 53 29 175 16
1 0 0 52 28 175 12
2 0 0 51 28 176 17
3 0 0 50 28 175 14
4 0 0 49 27 174 -1
5 0 0 49 28 175 13
6 0 0 49 29 175 -1
7 0 0 50 30 176 19
8 0 0 51 31 175 18
9 0 0 50 31 174 11
10 1 0 50 30 175 -1
11 1 0 50 30 174 9
12 1 0 51 29 174 1
13 1 0 50 28 174 5
14 1 0 51 28 175 3
15 1 0 51 29 175 -1
16 1 0 52 28 176 0
17 1 0 52 29 175 2
18 1 0 52 30 176 8
19 1 0 51 30 177 7
ITEM: TIMESTEP
13750001
ITEM: NUMBER OF ATOMS
20
ITEM: BOX BOUNDS pp pp pp
0 200
0 200
0 200
ITEM: ATOMS id type mol x y z bP
0 0 0 45 38 170 -1
1 0 0 45 38 169 -1
2 0 0 45 37 168 13
3 0 0 46 37 169 -1
4 0 0 45 36 170 12
5 0 0 46 36 169 11
6 0 0 45 35 168 15
7 0 0 46 35 169 16
8 0 0 46 36 170 17
9 0 0 45 37 169 10
10 1 0 46 36 168 9
11 1 0 45 36 168 5
12 1 0 45 36 169 4
13 1 0 44 36 168 2
14 1 0 45 35 169 -1
15 1 0 46 34 168 6
16 1 0 45 34 169 7
17 1 0 45 35 170 8
18 1 0 44 34 169 -1
19 1 0 43 35 169 -1
ITEM: TIMESTEP
14000001
ITEM: NUMBER OF ATOMS
20
ITEM: BOX BOUNDS pp pp pp
0 200
0 200
0 200
ITEM: ATOMS id type mol x y z bP
0 0 0 39 47 167 -1
1 0 0 38 46 166 16
2 0 0 39 46 166 14
3 0 0 40 45 166 17
4 0 0 40 44 165 18
5 0 0 39 45 166 13
6 0 0 39 44 167 12
7 0 0 40 44 168 11
8 0 0 41 43 168 -1
9 0 0 41 44 167 -1
10 1 0 41 44 168 -1
11 1 0 40 44 167 7
12 1 0 40 43 166 6
13 1 0 39 44 165 5
14 1 0 38 45 165 2
15 1 0 38 45 166 -1
16 1 0 39 45 167 1
17 1 0 40 45 167 3
18 1 0 41 44 166 4
19 1 0 41 45 165 -1
ITEM: TIMESTEP
14250001
ITEM: NUMBER OF ATOMS
20
ITEM: BOX BOUNDS pp pp pp
0 200
0 200
0 200
ITEM: ATOMS id type mol x y z bP
0 0 0 39 41 162 -1
1 0 0 39 40 161 15
2 0 0 38 40 161 14
3 0 0 37 41 162 16
4 0 0 37 42 161 -1
5 0 0 36 43 160 -1
6 0 0 36 42 161 -1
7 0 0 36 41 160 13
8 0 0 35 40 159 12
9 0 0 35 41 160 10
10 1 0 36 40 160 9
11 1 0 36 40 159 -1
12 1 0 36 41 159 8
13 1 0 37 40 160 7
14 1 0 37 41 161 2
15 1 0 38 40 162 1
16 1 0 37 40 161 3
17 1 0 36 40 162 -1
18 1 0 36 41 161 -1
19 1 0 35 40 161 -1
ITEM: TIMESTEP
14500001
ITEM: NUMBER OF ATOMS
20
ITEM: BOX BOUNDS pp pp pp
0 200
0 200
0 200
ITEM: ATOMS id type mol x y z bP
0 0 0 35 49 161 18
1 0 0 34 49 161 19
2 0 0 35 48 160 -1
3 0 0 36 49 160 15
4 0 0 36 48 160 13
5 0 0 37 48 160 17
6 0 0 37 48 159 11
7 0 0 36 49 159 12
8 0 0 37 50 159 -1
9 0 0 37 49 158 -1
10 1 0 37 48 157 -1
11 1 0 38 49 158 6
12 1 0 37 50 158 7
13 1 0 37 49 159 4
14 1 0 38 48 160 -1
15 1 0 37 48 161 3
16 1 0 38 49 162 -1
17 1 0 37 49 161 5
18 1 0 36 50 161 0
19 1 0 35 49 160 1
ITEM: TIMESTEP
14750001
ITEM: NUMBER OF ATOMS
20
ITEM: BOX BOUNDS pp pp pp
0 200
0 200
0 200
ITEM: ATOMS id type mol x y z bP
0 0 0 40 53 161 16
1 0 0 41 54 160 -1
2 0 0 41 53 161 13
3 0 0 42 53 161 -1
4 0 0 43 52 160 14
5 0 0 43 51 160 15
6 0 0 43 50 160 -1
7 0 0 42 51 161 18
8 0 0 41 50 160 11
9 0 0 42 51 159 17
10 1 0 41 52 159 -1
11 1 0 40 51 160 8
12 1 0 40 52 161 -1
13 1 0 41 52 161 2
14 1 0 42 52 160 4
15 1 0 42 52 159 5
16 1 0 41 52 160 0
17 1 0 42 51 160 9
18 1 0 42 50 161 7
19 1 0 43 49 162 -1
ITEM: TIMESTEP
15000001
ITEM: NUMBER OF ATOMS
20
ITEM: BOX BOUNDS pp pp pp
0 200
0 200
0 200
ITEM: ATOMS id type mol x y z bP
0 0 0 49 49 157 17
1 0 0 49 49 158 -1
2 0 0 50 48 158 -1
3 0 0 49 47 158 -1
4 0 0 48 48 157 10
5 0 0 47 49 157 -1
6 0 0 46 49 157 18
7 0 0 45 50 158 12
8 0 0 46 50 159 19
9 0 0 46 49 158 11
10 1 0 47 48 158 4