ITEM: TIMESTEP
0
ITEM: NUMBER OF ATOMS
20
ITEM: BOX BOUNDS pp pp pp
0 200
0 200
0 200
ITEM: ATOMS id type mol x y z bP
0 0 0 21 194 58 18
1 0 0 21 194 57 -1
2 0 0 20 193 57 -1
3 0 0 21 192 56 14
4 0 0 21 192 57 17
5 0 0 21 191 56 16
6 0 0 21 191 55 13
7 0 0 22 192 54 11
8 0 0 21 193 55 15
9 0 0 22 193 54 10
10 1 0 23 192 55 9
11 1 0 22 192 55 7
12 1 0 22 191 55 -1
13 1 0 22 191 54 6
14 1 0 21 192 55 3
15 1 0 20 193 55 8
16 1 0 20 192 55 5
17 1 0 21 193 56 4
18 1 0 21 193 57 0
19 1 0 22 193 57 -1
