ITEM: TIMESTEP
0
ITEM: NUMBER OF ATOMS
20
ITEM: BOX BOUNDS pp pp pp
0 200
0 200
0 200
ITEM: ATOMS id type mol x y z bP
0 0 0 5 171 57 -1
1 0 0 5 172 57 -1
2 0 0 6 172 56 19
3 0 0 7 171 56 17
4 0 0 6 170 56 12
5 0 0 7 171 55 16
6 0 0 7 170 54 -1
7 0 0 8 169 55 14
8 0 0 7 168 55 13
9 0 0 7 169 56 15
10 1 0 7 168 56 -1
11 1 0 6 169 55 -1
12 1 0 7 169 55 4
13 1 0 8 168 54 8
14 1 0 7 169 54 7
15 1 0 6 170 55 9
16 1 0 7 170 56 5
17 1 0 8 170 57 3
18 1 0 7 170 58 -1
19 1 0 6 171 57 2
