ITEM: TIMESTEP
0
ITEM: NUMBER OF ATOMS
20
ITEM: BOX BOUNDS pp pp pp
0 200
0 200
0 200
ITEM: ATOMS id type mol x y z bP
0 0 0 118 51 158 17
1 0 0 117 51 157 18
2 0 0 117 50 158 16
3 0 0 117 49 159 -1
4 0 0 118 48 159 14
5 0 0 118 48 158 15
6 0 0 119 47 159 -1
7 0 0 119 46 158 13
8 0 0 120 46 157 10
9 0 0 121 47 157 -1
10 1 0 121 47 158 8
11 1 0 120 48 159 -1
12 1 0 119 47 160 -1
13 1 0 118 47 159 7
14 1 0 117 48 158 4
15 1 0 118 49 157 5
16 1 0 118 50 158 2
17 1 0 118 51 157 0
18 1 0 117 51 156 1
19 1 0 116 50 155 -1
