LAMMPS Description

20	atoms
38	bonds
0	angles
0	dihedrals
0	impropers

6	atom types
1	bond types
0	angle types

0 200 xlo xhi
0 200 ylo yhi
0 200 zlo zhi

Masses

1	1.0
2	1.0
3	1.0
4	1.0
5	1.0
6	1.0

Atoms

0 0 0 0.0 1 171 164
1 0 0 0.0 2 170 165
2 0 0 0.0 2 169 165
3 0 0 0.0 2 168 166
4 0 0 0.0 3 169 167
5 0 0 0.0 4 170 168
6 0 0 0.0 3 169 169
7 0 0 0.0 3 169 170
8 0 0 0.0 2 170 169
9 0 0 0.0 1 170 168
10 0 1 0.0 1 171 167
11 0 1 0.0 1 172 167
12 0 1 0.0 2 172 167
13 0 1 0.0 3 172 168
14 0 1 0.0 3 172 169
15 0 1 0.0 4 172 168
16 0 1 0.0 4 171 168
17 0 1 0.0 5 171 168
18 0 1 0.0 6 171 167
19 0 1 0.0 5 170 168

Bonds

0 1 0 1
1 1 1 0
2 1 1 2
3 1 2 1
4 1 2 3
5 1 3 2
6 1 3 4
7 1 4 3
8 1 4 5
9 1 5 4
10 1 5 6
11 1 6 5
12 1 6 7
13 1 7 6
14 1 7 8
15 1 8 7
16 1 8 9
17 1 9 8
18 1 9 10
19 1 10 9
20 1 10 11
21 1 11 10
22 1 11 12
23 1 12 11
24 1 12 13
25 1 13 12
26 1 13 14
27 1 14 13
28 1 14 15
29 1 15 14
30 1 15 16
31 1 16 15
32 1 16 17
33 1 17 16
34 1 17 18
35 1 18 17
36 1 18 19
37 1 19 18

