ITEM: TIMESTEP
0
ITEM: NUMBER OF ATOMS
20
ITEM: BOX BOUNDS pp pp pp
0 200
0 200
0 200
ITEM: ATOMS id type mol x y z bP
0 0 0 89 112 72 -1
1 0 0 90 112 73 19
2 0 0 91 111 72 18
3 0 0 91 111 71 -1
4 0 0 92 110 71 15
5 0 0 91 109 70 -1
6 0 0 91 108 71 13
7 0 0 91 107 71 -1
8 0 0 92 106 71 10
9 0 0 91 106 72 12
10 1 0 92 105 71 8
11 1 0 93 106 70 -1
12 1 0 92 107 71 9
13 1 0 91 107 70 6
14 1 0 91 108 70 -1
15 1 0 92 109 71 4
16 1 0 92 108 72 -1
17 1 0 91 109 72 -1
18 1 0 91 110 71 2
19 1 0 90 111 72 1
